 Gaussian 09, Revision C.01,
 Gaussian 09:  EM64L-G09RevC.01 23-Sep-2011

 ---------------------------------------
 #p b3lyp/cc-pvdz pop=(chelpg,readradii)
 ---------------------------------------

 (Enter /opt/gaussian/l101.exe)
 ---------
 Mol09.log
 ---------
 Charge =  0 Multiplicity = 1

                         Standard orientation:
 ---------------------------------------------------------------------
 Center     Atomic      Atomic             Coordinates (Angstroms)
 Number     Number       Type             X           Y           Z
 ---------------------------------------------------------------------
      1          8           0        0.184140   -1.748950   -0.088960
      2          6           0        0.070460   -0.538350   -0.269210
      3          6           0        1.036160    0.173030   -1.229560
      4          7           0        2.355480    0.322950   -0.637620
      5          7           0        2.823779    1.575011   -0.345250
      6          7           0        4.022849    1.488571    0.122850
      7          6           0        4.386480    0.156531    0.147300
      8          6           0        5.585260   -0.459249    0.551040
      9          6           0        5.658220   -1.840919    0.448480
     10          6           0        4.564261   -2.604869   -0.035060
     11          6           0        3.369980   -2.017289   -0.432480
     12          6           0        3.309410   -0.615639   -0.338930
     13          7           0       -0.876450    0.211630    0.375920
     14          6           0       -1.752260   -0.489071    1.346140
     15          6           0       -2.998710   -1.095431    0.742380
     16          6           0       -4.307010   -0.510572    0.826960
     17          6           0       -5.272240   -1.254172    0.200530
     18         16           0       -4.602089   -2.691742   -0.510430
     19          6           0       -3.011090   -2.282721    0.047340
     20          6           0       -1.102691    1.614279    0.148590
     21          6           0       -0.310271    2.568480    0.799810
     22          6           0       -0.555461    3.929520    0.600620
     23          6           0       -1.596392    4.341939   -0.236440
     24          6           0       -2.390211    3.389029   -0.882350
     25          6           0       -2.145541    2.025879   -0.693550
     26          1           0        1.112180   -0.459610   -2.126560
     27          1           0        0.711919    1.178280   -1.517070
     28          1           0        6.415930    0.140242    0.926480
     29          1           0        6.571050   -2.358368    0.750910
     30          1           0        4.662151   -3.691699   -0.085390
     31          1           0        2.510901   -2.600429   -0.761440
     32          1           0       -1.138650   -1.273971    1.806360
     33          1           0       -2.023650    0.244369    2.117290
     34          1           0       -4.515200    0.427608    1.343750
     35          1           0       -6.337750   -1.049182    0.120170
     36          1           0       -2.159219   -2.923961   -0.168410
     37          1           0        0.509789    2.240930    1.439780
     38          1           0        0.075078    4.668520    1.098990
     39          1           0       -1.786022    5.406569   -0.389610
     40          1           0       -3.201651    3.705999   -1.541170
     41          1           0       -2.756281    1.274599   -1.196390
 ---------------------------------------------------------------------

 SCF Done:  E(RB3LYP) =  -1426.12507165     A.U. after   16 cycles

 The electronic state is 1-A.
 Alpha  occ. eigenvalues --  -88.91077 -19.12383 -14.41423 -14.39095 -14.37883
 Alpha  occ. eigenvalues --  -14.34896 -10.30316 -10.25156 -10.24370 -10.23781
 Alpha  occ. eigenvalues --  -10.23090 -10.21786 -10.21297 -10.21142 -10.20877
 Alpha  occ. eigenvalues --  -10.20824 -10.20752 -10.20709 -10.20661 -10.20210
 Alpha  occ. eigenvalues --  -10.19918 -10.19831 -10.19823 -10.19820 -10.19433
 Alpha  occ. eigenvalues --   -7.97287  -5.93602  -5.93225  -5.92937  -1.09422
 Alpha  occ. eigenvalues --   -1.05338  -0.95793  -0.92342  -0.88374  -0.86472
 Alpha  occ. eigenvalues --   -0.86313  -0.78462  -0.77400  -0.76646  -0.76388
 Alpha  occ. eigenvalues --   -0.75301  -0.73974  -0.73023  -0.68582  -0.64776
 Alpha  occ. eigenvalues --   -0.64027  -0.62529  -0.62257  -0.59760  -0.57354
 Alpha  occ. eigenvalues --   -0.56912  -0.54940  -0.53951  -0.52575  -0.52385
 Alpha  occ. eigenvalues --   -0.51044  -0.50427  -0.48916  -0.47182  -0.46849
 Alpha  occ. eigenvalues --   -0.46496  -0.45355  -0.44593  -0.44571  -0.43655
 Alpha  occ. eigenvalues --   -0.43006  -0.42402  -0.42072  -0.41550  -0.39945
 Alpha  occ. eigenvalues --   -0.38702  -0.38217  -0.38179  -0.37579  -0.37485
 Alpha  occ. eigenvalues --   -0.36712  -0.36309  -0.36147  -0.35504  -0.34690
 Alpha  occ. eigenvalues --   -0.33139  -0.31414  -0.28152  -0.27391  -0.27124
 Alpha  occ. eigenvalues --   -0.26604  -0.25911  -0.25414  -0.24963  -0.23985
 Alpha  occ. eigenvalues --   -0.23185
 Alpha virt. eigenvalues --   -0.04349  -0.03230  -0.02709  -0.01902  -0.00275
 Alpha virt. eigenvalues --    0.01022   0.03373   0.03489   0.04501   0.05316
 Alpha virt. eigenvalues --    0.06857   0.07335   0.08354   0.09185   0.09655

 Mulliken atomic charges:
              1
     1  O   -0.284219
     2  C    0.142415
     3  C    0.182934
     4  N   -0.247655
     5  N   -0.064800
     6  N   -0.182988
     7  C    0.010591
     8  C    0.042050
     9  C    0.038838
    10  C    0.041742
    11  C    0.036840
    12  C    0.185271
    13  N   -0.234163
    14  C    0.189527
    15  C   -0.035421
    16  C    0.047708
    17  C   -0.108642
    18  S    0.147426
    19  C   -0.128014
    20  C   -0.036588
    21  C    0.094322
    22  C    0.049767
    23  C    0.040709
    24  C    0.046156
    25  C    0.067881
    26  H    0.044985
    27  H    0.054321
    28  H   -0.023623
    29  H   -0.027272
    30  H   -0.023898
    31  H   -0.015807
    32  H    0.043004
    33  H    0.010983
    34  H   -0.027325
    35  H    0.012518
    36  H    0.021904
    37  H   -0.030676
    38  H   -0.014404
    39  H   -0.022423
    40  H   -0.020422
    41  H   -0.023551
 Sum of Mulliken atomic charges =   0.00000

 Dipole moment (field-independent basis, Debye):
    X=             -2.9519    Y=              0.6003    Z=             -0.3923  Tot=              3.0378
 Quadrupole moment (field-independent basis, Debye-Ang):
   XX=           -146.1118   YY=           -147.1905   ZZ=           -148.2596
   XY=            -15.9836   XZ=              2.6164   YZ=              1.7112

 Normal termination of Gaussian 09 at Sat Sep 10 07:44:26 2022.
