 Gaussian 09, Revision C.01,
 Gaussian 09:  EM64L-G09RevC.01 23-Sep-2011

 ---------------------------------------
 #p b3lyp/cc-pvdz pop=(chelpg,readradii)
 ---------------------------------------

 (Enter /opt/gaussian/l101.exe)
 ---------
 Mol08.log
 ---------
 Charge =  0 Multiplicity = 1

                         Standard orientation:
 ---------------------------------------------------------------------
 Center     Atomic      Atomic             Coordinates (Angstroms)
 Number     Number       Type             X           Y           Z
 ---------------------------------------------------------------------
      1          8           0        3.277929   -2.470231    0.253690
      2          6           0        2.189240   -1.912081    0.218460
      3          6           0        1.022919   -2.502351    1.031540
      4          7           0       -0.166891   -2.788470    0.247820
      5          7           0       -0.052971   -3.275610   -1.021560
      6          7           0       -1.228471   -3.516350   -1.499690
      7          6           0       -2.163571   -3.203900   -0.532760
      8          6           0       -1.486071   -2.731840    0.612010
      9          6           0       -2.169151   -2.335220    1.774400
     10          6           0       -3.555141   -2.426420    1.737780
     11          6           0       -4.247631   -2.896630    0.592370
     12          6           0       -3.567221   -3.289740   -0.551850
     13          7           0        1.967310   -0.769141   -0.508020
     14          6           0        3.082950   -0.274531   -1.347150
     15          6           0        4.023410    0.667119   -0.629750
     16          6           0        5.029470    0.248259    0.209990
     17         16           0        5.917220    1.582589    0.874820
     18          6           0        4.931310    2.727889    0.015480
     19          6           0        3.974210    2.097859   -0.735300
     20          6           0        0.788470    0.039509   -0.402730
     21          6           0       -0.160010    0.040540   -1.434730
     22          6           0       -1.289720    0.851530   -1.347300
     23          6           0       -1.508000    1.679870   -0.229610
     24          6           0       -0.544150    1.675870    0.794410
     25          6           0        0.595370    0.873769    0.706070
     26          6           0       -2.721390    2.529380   -0.135390
     27          6           0       -2.663550    3.833950    0.392270
     28          7           0       -3.713380    4.653000    0.513570
     29          6           0       -4.901030    4.194360    0.095320
     30          6           0       -5.083030    2.922790   -0.455250
     31          6           0       -3.979330    2.079360   -0.569340
     32          1           0        0.733140   -1.811141    1.835920
     33          1           0        1.419789   -3.422861    1.482010
     34          1           0       -1.647640   -1.975010    2.662420
     35          1           0       -4.130131   -2.130020    2.617800
     36          1           0       -5.337761   -2.952020    0.620490
     37          1           0       -4.086351   -3.657390   -1.438290
     38          1           0        3.626240   -1.160611   -1.697730
     39          1           0        2.634430    0.229299   -2.214520
     40          1           0        5.276400   -0.777481    0.474910
     41          1           0        5.121850    3.794809    0.111200
     42          1           0        3.253010    2.631909   -1.356020
     43          1           0       -0.014150   -0.614200   -2.295180
     44          1           0       -2.011200    0.848790   -2.166600
     45          1           0       -0.692770    2.296530    1.680090
     46          1           0        1.344910    0.891589    1.499650
     47          1           0       -1.701330    4.243890    0.717520
     48          1           0       -5.748850    4.878420    0.206850
     49          1           0       -6.074120    2.597040   -0.777540
     50          1           0       -4.093740    1.068850   -0.968170
 ---------------------------------------------------------------------

 SCF Done:  E(RB3LYP) =  -1673.22764867     A.U. after   16 cycles

 The electronic state is 1-A.
 Alpha  occ. eigenvalues --  -88.90778 -19.12107 -14.42217 -14.39813 -14.37382
 Alpha  occ. eigenvalues --  -14.35756 -14.33514 -10.30343 -10.25766 -10.24574
 Alpha  occ. eigenvalues --  -10.24240 -10.23502 -10.23218 -10.23125 -10.22171
 Alpha  occ. eigenvalues --  -10.22135 -10.21862 -10.21797 -10.21563 -10.21473
 Alpha  occ. eigenvalues --  -10.21315 -10.21241 -10.21152 -10.21133 -10.21032
 Alpha  occ. eigenvalues --  -10.20995 -10.20969 -10.20932 -10.20554 -10.19868
 Alpha  occ. eigenvalues --  -10.19512  -7.96988  -5.93303  -5.92927  -5.92638
 Alpha  occ. eigenvalues --   -1.10320  -1.05183  -0.95748  -0.95094  -0.93086
 Alpha  occ. eigenvalues --   -0.88161  -0.87566  -0.87426  -0.82291  -0.78995
 Alpha  occ. eigenvalues --   -0.78796  -0.77988  -0.76940  -0.76615  -0.75076
 Alpha  occ. eigenvalues --   -0.74034  -0.72747  -0.68456  -0.66148  -0.65783
 Alpha  occ. eigenvalues --   -0.64881  -0.63303  -0.62196  -0.61715  -0.60758
 Alpha  occ. eigenvalues --   -0.57409  -0.56914  -0.55159  -0.54239  -0.53786
 Alpha  occ. eigenvalues --   -0.53580  -0.52235  -0.50842  -0.50083  -0.49571
 Alpha  occ. eigenvalues --   -0.49114  -0.47738  -0.47573  -0.47199  -0.45817
 Alpha  occ. eigenvalues --   -0.45746  -0.45623  -0.45221  -0.44138  -0.43604
 Alpha  occ. eigenvalues --   -0.42528  -0.42065  -0.41692  -0.41174  -0.40920
 Alpha  occ. eigenvalues --   -0.39913  -0.39402  -0.38843  -0.38740  -0.38139
 Alpha  occ. eigenvalues --   -0.37671  -0.37438  -0.37319  -0.36675  -0.36518
 Alpha  occ. eigenvalues --   -0.36252  -0.34415  -0.33899  -0.32112  -0.30869
 Alpha  occ. eigenvalues --   -0.28952  -0.27797  -0.27598  -0.27092  -0.26439
 Alpha  occ. eigenvalues --   -0.26282  -0.25869  -0.25312  -0.24778  -0.24348
 Alpha  occ. eigenvalues --   -0.23445
 Alpha virt. eigenvalues --   -0.05715  -0.05252  -0.03599  -0.03111  -0.01904
 Alpha virt. eigenvalues --   -0.00640  -0.00326   0.00495   0.02319   0.03671
 Alpha virt. eigenvalues --    0.04524   0.04935   0.05786   0.06017   0.07276

 Mulliken atomic charges:
              1
     1  O   -0.265176
     2  C    0.126527
     3  C    0.185350
     4  N   -0.252449
     5  N   -0.053842
     6  N   -0.180153
     7  C    0.006615
     8  C    0.207951
     9  C    0.018932
    10  C    0.041300
    11  C    0.035804
    12  C    0.042523
    13  N   -0.235177
    14  C    0.185214
    15  C   -0.033906
    16  C   -0.129058
    17  S    0.144491
    18  C   -0.109910
    19  C    0.053483
    20  C   -0.018150
    21  C    0.090896
    22  C    0.029416
    23  C    0.038016
    24  C    0.025857
    25  C    0.081009
    26  C   -0.048938
    27  C    0.099820
    28  N   -0.172714
    29  C    0.106274
    30  C   -0.008463
    31  C    0.075555
    32  H    0.043581
    33  H    0.054071
    34  H   -0.023871
    35  H   -0.021284
    36  H   -0.024304
    37  H   -0.020271
    38  H    0.042528
    39  H    0.009192
    40  H    0.022200
    41  H    0.011658
    42  H   -0.027996
    43  H   -0.018133
    44  H   -0.028630
    45  H   -0.028883
    46  H   -0.025267
    47  H   -0.009162
    48  H   -0.001677
    49  H   -0.021451
    50  H   -0.019398
 Sum of Mulliken atomic charges =   0.00000

 Dipole moment (field-independent basis, Debye):
    X=             -3.2012    Y=              1.7081    Z=              1.7236  Tot=              4.0170
 Quadrupole moment (field-independent basis, Debye-Ang):
   XX=           -177.8297   YY=           -205.6052   ZZ=           -180.1969
   XY=             12.4860   XZ=              2.5795   YZ=            -10.7400

 Normal termination of Gaussian 09 at Sat Sep 10 07:35:44 2022.
