 Gaussian 09, Revision C.01,
 Gaussian 09:  EM64L-G09RevC.01 23-Sep-2011

 ---------------------------------------
 #p b3lyp/cc-pvdz pop=(chelpg,readradii)
 ---------------------------------------

 (Enter /opt/gaussian/l101.exe)
 ---------
 Mol07.log
 ---------
 Charge =  0 Multiplicity = 1

                         Standard orientation:
 ---------------------------------------------------------------------
 Center     Atomic      Atomic             Coordinates (Angstroms)
 Number     Number       Type             X           Y           Z
 ---------------------------------------------------------------------
      1          8           0       -3.283508   -2.453473    0.271870
      2          6           0       -2.193539   -1.897362    0.234510
      3          6           0       -1.027368   -2.485231    1.049320
      4          7           0        0.151352   -2.797170    0.258530
      5          7           0        0.019672   -3.297311   -1.004070
      6          7           0        1.187532   -3.560780   -1.488970
      7          6           0        2.135132   -3.250719   -0.533520
      8          6           0        1.474172   -2.755480    0.611070
      9          6           0        2.172611   -2.354049    1.762560
     10          6           0        3.556802   -2.464958    1.715330
     11          6           0        4.232762   -2.958908    0.570120
     12          6           0        3.537202   -3.356328   -0.563360
     13          7           0       -1.968210   -0.758632   -0.496640
     14          6           0       -3.079880   -0.267683   -1.342200
     15          6           0       -4.023761    0.677937   -0.634130
     16          6           0       -5.030030    0.264196    0.207810
     17         16           0       -5.922661    1.602305    0.858790
     18          6           0       -4.938482    2.742266   -0.009730
     19          6           0       -3.978362    2.107737   -0.752860
     20          6           0       -0.788060    0.049259   -0.391380
     21          6           0       -0.603011    0.896709    0.708730
     22          6           0        0.535229    1.700680    0.794730
     23          6           0        1.508239    1.694500   -0.220890
     24          6           0        1.297929    0.850550   -1.328590
     25          6           0        0.169010    0.037840   -1.415020
     26          6           0        2.721078    2.549661   -0.127120
     27          6           0        2.649467    3.852431    0.400490
     28          6           0        3.789106    4.654182    0.489100
     29          6           0        5.026207    4.170923    0.052670
     30          6           0        5.112788    2.878453   -0.473140
     31          6           0        3.973258    2.076572   -0.562230
     32          1           0       -1.429258   -3.393942    1.518950
     33          1           0       -0.722149   -1.782981    1.838140
     34          1           0        1.663731   -1.974309    2.649740
     35          1           0        4.143501   -2.164618    2.586200
     36          1           0        5.322272   -3.027957    0.589260
     37          1           0        4.043652   -3.740818   -1.449960
     38          1           0       -2.627510    0.232078   -2.209870
     39          1           0       -3.622399   -1.154963   -1.691160
     40          1           0       -5.274210   -0.759794    0.481790
     41          1           0       -5.132193    3.809476    0.075630
     42          1           0       -3.257152    2.637487   -1.377220
     43          1           0       -1.358231    0.923188    1.496790
     44          1           0        0.676628    2.332680    1.673630
     45          1           0        2.025439    0.838411   -2.142170
     46          1           0        0.029580   -0.626571   -2.269250
     47          1           0        1.684637    4.251521    0.720910
     48          1           0        3.708016    5.665792    0.893570
     49          1           0        5.917636    4.798284    0.121610
     50          1           0        6.075878    2.487394   -0.809340
     51          1           0        4.059369    1.058722   -0.948400
 ---------------------------------------------------------------------

 SCF Done:  E(RB3LYP) =  -1657.19118136     A.U. after   16 cycles

 The electronic state is 1-A.
 Alpha  occ. eigenvalues --  -88.90620 -19.11810 -14.41904 -14.39502 -14.37059
 Alpha  occ. eigenvalues --  -14.35444 -10.30032 -10.25460 -10.24075 -10.23919
 Alpha  occ. eigenvalues --  -10.23237 -10.21816 -10.21511 -10.21323 -10.21246
 Alpha  occ. eigenvalues --  -10.21018 -10.20845 -10.20818 -10.20816 -10.20684
 Alpha  occ. eigenvalues --  -10.20650 -10.20569 -10.20519 -10.20235 -10.20094
 Alpha  occ. eigenvalues --  -10.20062 -10.20041 -10.19994 -10.19975 -10.19680
 Alpha  occ. eigenvalues --  -10.19350  -7.96830  -5.93146  -5.92770  -5.92481
 Alpha  occ. eigenvalues --   -1.10006  -1.04870  -0.95400  -0.92773  -0.88067
 Alpha  occ. eigenvalues --   -0.87689  -0.87157  -0.85563  -0.79000  -0.78514
 Alpha  occ. eigenvalues --   -0.77662  -0.76541  -0.76253  -0.75422  -0.74571
 Alpha  occ. eigenvalues --   -0.73144  -0.72503  -0.68205  -0.65628  -0.64711
 Alpha  occ. eigenvalues --   -0.63409  -0.62962  -0.60792  -0.60524  -0.59663
 Alpha  occ. eigenvalues --   -0.56999  -0.56700  -0.54841  -0.53984  -0.53404
 Alpha  occ. eigenvalues --   -0.53250  -0.51864  -0.50179  -0.49040  -0.48829
 Alpha  occ. eigenvalues --   -0.47907  -0.47423  -0.47282  -0.45592  -0.45319
 Alpha  occ. eigenvalues --   -0.45244  -0.45107  -0.45046  -0.43766  -0.43286
 Alpha  occ. eigenvalues --   -0.42702  -0.42235  -0.41638  -0.41428  -0.39468
 Alpha  occ. eigenvalues --   -0.39178  -0.38939  -0.38444  -0.38025  -0.37432
 Alpha  occ. eigenvalues --   -0.37308  -0.37084  -0.36512  -0.36472  -0.36136
 Alpha  occ. eigenvalues --   -0.35222  -0.34719  -0.34236  -0.33582  -0.31769
 Alpha  occ. eigenvalues --   -0.29317  -0.27442  -0.27102  -0.26707  -0.26324
 Alpha  occ. eigenvalues --   -0.25971  -0.25540  -0.25028  -0.24321  -0.23938
 Alpha  occ. eigenvalues --   -0.23129
 Alpha virt. eigenvalues --   -0.05120  -0.04748  -0.02750  -0.01786  -0.01617
 Alpha virt. eigenvalues --   -0.00069   0.00057   0.01045   0.02648   0.03828
 Alpha virt. eigenvalues --    0.04830   0.05139   0.05674   0.06279   0.07236

 Mulliken atomic charges:
              1
     1  O   -0.266612
     2  C    0.125864
     3  C    0.186590
     4  N   -0.252389
     5  N   -0.054130
     6  N   -0.180607
     7  C    0.006682
     8  C    0.208282
     9  C    0.019456
    10  C    0.042107
    11  C    0.036655
    12  C    0.043063
    13  N   -0.233970
    14  C    0.186111
    15  C   -0.033898
    16  C   -0.128835
    17  S    0.142740
    18  C   -0.110379
    19  C    0.054092
    20  C   -0.020409
    21  C    0.080843
    22  C    0.025951
    23  C    0.041361
    24  C    0.030194
    25  C    0.089241
    26  C    0.015832
    27  C    0.012135
    28  C    0.044181
    29  C    0.034495
    30  C    0.043910
    31  C    0.011769
    32  H    0.052715
    33  H    0.043105
    34  H   -0.024544
    35  H   -0.022065
    36  H   -0.024916
    37  H   -0.020879
    38  H    0.008736
    39  H    0.042059
    40  H    0.022118
    41  H    0.010424
    42  H   -0.028192
    43  H   -0.028008
    44  H   -0.032487
    45  H   -0.028737
    46  H   -0.020017
    47  H   -0.037514
    48  H   -0.027027
    49  H   -0.028111
    50  H   -0.026737
    51  H   -0.030250
 Sum of Mulliken atomic charges =   0.00000

 Dipole moment (field-independent basis, Debye):
    X=              3.4384    Y=              3.8173    Z=              2.4327  Tot=              5.6844
 Quadrupole moment (field-independent basis, Debye-Ang):
   XX=           -181.2918   YY=           -189.9199   ZZ=           -181.5537
   XY=             -5.9032   XZ=              0.1526   YZ=             -6.1634

 Normal termination of Gaussian 09 at Sat Sep 10 07:20:37 2022.
