 Gaussian 09, Revision C.01,
 Gaussian 09:  EM64L-G09RevC.01 23-Sep-2011

 ---------------------------------------
 #p b3lyp/cc-pvdz pop=(chelpg,readradii)
 ---------------------------------------

 (Enter /opt/gaussian/l101.exe)
 ---------
 Mol12.log
 ---------
 Charge =  0 Multiplicity = 1

                         Standard orientation:
 ---------------------------------------------------------------------
 Center     Atomic      Atomic             Coordinates (Angstroms)
 Number     Number       Type             X           Y           Z
 ---------------------------------------------------------------------
      1          6           0       -5.676659   -2.752281    0.827790
      2         16           0       -5.991490   -0.981581    0.692070
      3          8           0       -5.243950   -0.300231    1.775320
      4          8           0       -7.442250   -0.752441    0.499040
      5          7           0       -5.291370   -0.635821   -0.866330
      6          6           0       -3.901330   -0.273081   -0.899480
      7          6           0       -2.971280   -1.219721   -1.345580
      8          6           0       -1.611560   -0.920501   -1.407180
      9          6           0       -1.151260    0.351340   -1.024110
     10          6           0       -2.086880    1.302969   -0.581310
     11          6           0       -3.444840    0.992599   -0.515340
     12          7           0        0.237150    0.699350   -1.115730
     13          6           0        0.587140    2.082600   -1.482860
     14          6           0        1.093700    2.948030   -0.345310
     15          6           0        0.713610    2.805410    1.032290
     16          6           0        1.289500    3.746140    1.845590
     17         16           0        2.308980    4.829940    0.952570
     18          6           0        1.960510    3.999570   -0.530780
     19          6           0        1.223820   -0.239650   -0.830350
     20          8           0        0.987391   -1.367930   -0.440110
     21          6           0        2.678320    0.229550   -1.030790
     22          7           0        3.619320   -0.849280   -0.871550
     23          7           0        4.284541   -1.318680   -1.972620
     24          7           0        5.090611   -2.259179   -1.619430
     25          6           0        4.977951   -2.441120   -0.254250
     26          6           0        5.643791   -3.327839    0.610540
     27          6           0        5.321541   -3.267959    1.958920
     28          6           0        4.354211   -2.351910    2.446330
     29          6           0        3.683151   -1.472560    1.606280
     30          6           0        4.018451   -1.533580    0.243640
     31          1           0       -4.591549   -2.914681    0.795080
     32          1           0       -6.082079   -3.059791    1.801130
     33          1           0       -6.192319   -3.256381    0.001900
     34          1           0       -5.909080    0.090089   -1.240350
     35          1           0       -3.328379   -2.198971   -1.669890
     36          1           0       -0.908889   -1.673400   -1.753430
     37          1           0       -1.762390    2.292509   -0.258430
     38          1           0       -4.151760    1.732949   -0.137970
     39          1           0        1.330230    2.070240   -2.294670
     40          1           0       -0.317430    2.524960   -1.921590
     41          1           0        0.047810    2.025800    1.402250
     42          1           0        1.175850    3.863920    2.921270
     43          1           0        2.415670    4.335620   -1.461030
     44          1           0        2.831020    0.608840   -2.050670
     45          1           0        2.912370    1.047360   -0.331110
     46          1           0        6.383121   -4.029139    0.220870
     47          1           0        5.815451   -3.939499    2.664130
     48          1           0        4.125641   -2.344500    3.514430
     49          1           0        2.924260   -0.787620    1.985130
 ---------------------------------------------------------------------

 SCF Done:  E(RB3LYP) =  -2069.36552295     A.U. after   15 cycles

 The electronic state is 1-A.
 Alpha  occ. eigenvalues --  -89.10744 -88.92807 -19.13342 -19.13334 -19.13298
 Alpha  occ. eigenvalues --  -14.41264 -14.39484 -14.39086 -14.36894 -14.34870
 Alpha  occ. eigenvalues --  -10.31410 -10.26341 -10.25997 -10.25442 -10.24132
 Alpha  occ. eigenvalues --  -10.23539 -10.23493 -10.23405 -10.23232 -10.22453
 Alpha  occ. eigenvalues --  -10.21418 -10.21280 -10.21160 -10.21125 -10.20939
 Alpha  occ. eigenvalues --  -10.20690 -10.20425 -10.20085 -10.19931 -10.19518
 Alpha  occ. eigenvalues --   -8.14100  -7.99010  -6.10434  -6.10392  -6.10238
 Alpha  occ. eigenvalues --   -5.95330  -5.94950  -5.94655  -1.10447  -1.09533
 Alpha  occ. eigenvalues --   -1.06534  -0.99631  -0.97295  -0.93722  -0.92614
 Alpha  occ. eigenvalues --   -0.90195  -0.86503  -0.86175  -0.79386  -0.78446
 Alpha  occ. eigenvalues --   -0.77865  -0.77204  -0.76882  -0.75412  -0.74982
 Alpha  occ. eigenvalues --   -0.73763  -0.70624  -0.65977  -0.64941  -0.63390
 Alpha  occ. eigenvalues --   -0.62466  -0.61816  -0.59816  -0.59034  -0.57751
 Alpha  occ. eigenvalues --   -0.56377  -0.54638  -0.53541  -0.53074  -0.52758
 Alpha  occ. eigenvalues --   -0.52251  -0.52009  -0.51281  -0.48739  -0.48065
 Alpha  occ. eigenvalues --   -0.47132  -0.46963  -0.46752  -0.46646  -0.45748
 Alpha  occ. eigenvalues --   -0.44737  -0.44642  -0.44193  -0.43954  -0.43741
 Alpha  occ. eigenvalues --   -0.43298  -0.42945  -0.42532  -0.41741  -0.41299
 Alpha  occ. eigenvalues --   -0.40015  -0.39768  -0.39129  -0.38327  -0.37670
 Alpha  occ. eigenvalues --   -0.37328  -0.36753  -0.36480  -0.35650  -0.34111
 Alpha  occ. eigenvalues --   -0.33153  -0.32003  -0.31350  -0.31194  -0.30864
 Alpha  occ. eigenvalues --   -0.29539  -0.28600  -0.28056  -0.27185  -0.26967
 Alpha  occ. eigenvalues --   -0.26692  -0.25901  -0.25017  -0.24010  -0.23499
 Alpha virt. eigenvalues --   -0.04403  -0.04245  -0.03987  -0.02835   0.00346
 Alpha virt. eigenvalues --    0.00784   0.01713   0.02244   0.03398   0.04055
 Alpha virt. eigenvalues --    0.04126   0.05341   0.06197   0.06427   0.06674

 Mulliken atomic charges:
              1
     1  C   -0.107855
     2  S    0.841700
     3  O   -0.440259
     4  O   -0.455430
     5  N   -0.330533
     6  C   -0.006658
     7  C    0.082738
     8  C    0.073747
     9  C    0.115994
    10  C    0.005715
    11  C    0.095514
    12  N   -0.285835
    13  C    0.153467
    14  C   -0.041176
    15  C    0.044367
    16  C   -0.097067
    17  S    0.166574
    18  C   -0.145279
    19  C    0.139690
    20  O   -0.239771
    21  C    0.125992
    22  N   -0.228547
    23  N   -0.062398
    24  N   -0.181967
    25  C    0.010547
    26  C    0.044336
    27  C    0.037595
    28  C    0.039295
    29  C    0.031590
    30  C    0.212702
    31  H    0.076328
    32  H    0.081875
    33  H    0.074057
    34  H    0.126371
    35  H   -0.032049
    36  H   -0.008091
    37  H   -0.015131
    38  H   -0.030078
    39  H    0.027823
    40  H    0.052607
    41  H   -0.003976
    42  H    0.021615
    43  H    0.006883
    44  H    0.057549
    45  H    0.068553
    46  H   -0.022295
    47  H   -0.026947
    48  H   -0.024859
    49  H   -0.029021
 Sum of Mulliken atomic charges =   0.00000

 Dipole moment (field-independent basis, Debye):
    X=              0.1675    Y=              2.8753    Z=              0.1747  Tot=              2.8855
 Quadrupole moment (field-independent basis, Debye-Ang):
   XX=           -224.2866   YY=           -172.2558   ZZ=           -184.4599
   XY=             18.6471   XZ=             22.3325   YZ=            -11.8674

 Normal termination of Gaussian 09 at Sat Sep 10 08:18:34 2022.
