 Gaussian 09, Revision C.01,
 Gaussian 09:  EM64L-G09RevC.01 23-Sep-2011

 ---------------------------------------
 #p b3lyp/cc-pvdz pop=(chelpg,readradii)
 ---------------------------------------

 (Enter /opt/gaussian/l101.exe)
 ---------
 Mol11.log
 ---------
 Charge =  0 Multiplicity = 1

                         Standard orientation:
 ---------------------------------------------------------------------
 Center     Atomic      Atomic             Coordinates (Angstroms)
 Number     Number       Type             X           Y           Z
 ---------------------------------------------------------------------
      1          8           0        1.294280   -1.493091   -0.153370
      2          6           0        1.382260   -0.431911   -0.740940
      3          6           0        2.758520    0.113959   -1.174510
      4          7           0        3.822080   -0.810771   -0.879240
      5          7           0        4.443370   -1.461941   -1.911290
      6          7           0        5.369610   -2.224391   -1.443200
      7          6           0        5.385510   -2.097961   -0.067170
      8          6           0        6.207950   -2.703171    0.899420
      9          6           0        5.989700   -2.364121    2.227320
     10          6           0        4.973790   -1.445821    2.596560
     11          6           0        4.149370   -0.841861    1.655640
     12          6           0        4.378190   -1.185311    0.313080
     13          7           0        0.284980    0.362099   -1.062240
     14          6           0        0.458280    1.690789   -1.664370
     15          6           0        0.838730    2.802169   -0.707250
     16          6           0        1.240590    4.104419   -1.160160
     17          6           0        1.526420    4.964599   -0.134230
     18         16           0        1.315700    4.206519    1.413870
     19          6           0        0.834640    2.714229    0.663960
     20          6           0       -1.048490   -0.084601   -0.780510
     21          6           0       -2.020870    0.839769   -0.365350
     22          6           0       -3.334520    0.429259   -0.131830
     23          6           0       -3.707780   -0.911061   -0.298110
     24          6           0       -2.735220   -1.824341   -0.732500
     25          6           0       -1.422040   -1.428361   -0.964620
     26          6           0       -5.104300   -1.426081   -0.081130
     27          8           0       -5.486180   -2.483131   -0.565280
     28          7           0       -5.929950   -0.628691    0.685810
     29          6           0       -7.238210   -1.093421    1.059690
     30          6           0       -8.386010   -0.857510    0.112480
     31          6           0       -8.275390   -0.048750    1.386040
     32          1           0        2.789190    0.263759   -2.262990
     33          1           0        2.954110    1.084789   -0.692230
     34          1           0        6.983810   -3.409641    0.600780
     35          1           0        6.606150   -2.812241    3.009210
     36          1           0        4.832180   -1.212691    3.654260
     37          1           0        3.358420   -0.151631    1.950290
     38          1           0        1.207660    1.631609   -2.468920
     39          1           0       -0.486750    1.941139   -2.168500
     40          1           0        1.314220    4.383919   -2.212460
     41          1           0        1.854730    6.000199   -0.196010
     42          1           0        0.569470    1.855749    1.277630
     43          1           0       -1.757480    1.887239   -0.214440
     44          1           0       -4.072430    1.179109    0.160810
     45          1           0       -3.037910   -2.859781   -0.893510
     46          1           0       -0.684650   -2.159121   -1.287380
     47          1           0       -5.477170    0.012069    1.329210
     48          1           0       -7.255270   -2.030041    1.627850
     49          1           0       -8.153370   -0.354260   -0.827600
     50          1           0       -9.153280   -1.631390    0.047160
     51          1           0       -8.968000   -0.255380    2.204450
     52          1           0       -7.977020    0.998449    1.291810
 ---------------------------------------------------------------------

 SCF Done:  E(RB3LYP) =  -1711.53042153     A.U. after   15 cycles

 The electronic state is 1-A.
 Alpha  occ. eigenvalues --  -88.92809 -19.13201 -19.10666 -14.41206 -14.39315
 Alpha  occ. eigenvalues --  -14.39020 -14.35672 -14.34799 -10.31296 -10.28693
 Alpha  occ. eigenvalues --  -10.26352 -10.25986 -10.25134 -10.23648 -10.23426
 Alpha  occ. eigenvalues --  -10.23208 -10.23091 -10.22531 -10.21595 -10.21146
 Alpha  occ. eigenvalues --  -10.21114 -10.20855 -10.20590 -10.20454 -10.20118
 Alpha  occ. eigenvalues --  -10.20083 -10.20058 -10.20016 -10.19894 -10.19483
 Alpha  occ. eigenvalues --  -10.19430  -7.99013  -5.95337  -5.94956  -5.94648
 Alpha  occ. eigenvalues --   -1.09475  -1.06421  -1.03556  -0.97212  -0.93256
 Alpha  occ. eigenvalues --   -0.92571  -0.90245  -0.86966  -0.86452  -0.84492
 Alpha  occ. eigenvalues --   -0.79532  -0.78421  -0.77314  -0.76338  -0.76038
 Alpha  occ. eigenvalues --   -0.74951  -0.74195  -0.70782  -0.67059  -0.64928
 Alpha  occ. eigenvalues --   -0.63426  -0.62475  -0.61703  -0.61171  -0.59863
 Alpha  occ. eigenvalues --   -0.58957  -0.57636  -0.56930  -0.56379  -0.54590
 Alpha  occ. eigenvalues --   -0.53689  -0.52961  -0.52589  -0.51900  -0.51620
 Alpha  occ. eigenvalues --   -0.50504  -0.48463  -0.47853  -0.46843  -0.46707
 Alpha  occ. eigenvalues --   -0.46186  -0.45663  -0.44737  -0.44626  -0.43833
 Alpha  occ. eigenvalues --   -0.43542  -0.43183  -0.42788  -0.42475  -0.42301
 Alpha  occ. eigenvalues --   -0.41525  -0.40691  -0.40013  -0.39732  -0.39125
 Alpha  occ. eigenvalues --   -0.38001  -0.37676  -0.37286  -0.37147  -0.36723
 Alpha  occ. eigenvalues --   -0.36518  -0.35824  -0.35603  -0.33089  -0.31983
 Alpha  occ. eigenvalues --   -0.31231  -0.30636  -0.30205  -0.28095  -0.27113
 Alpha  occ. eigenvalues --   -0.26717  -0.26646  -0.26305  -0.25980  -0.24983
 Alpha  occ. eigenvalues --   -0.24824  -0.24030  -0.23488
 Alpha virt. eigenvalues --   -0.04983  -0.04232  -0.03842  -0.02283   0.00051
 Alpha virt. eigenvalues --    0.00722   0.01326   0.01997   0.03501   0.04456
 Alpha virt. eigenvalues --    0.04707   0.05136   0.05944   0.06564   0.07125

 Mulliken atomic charges:
              1
     1  O   -0.234130
     2  C    0.131811
     3  C    0.122226
     4  N   -0.228446
     5  N   -0.060668
     6  N   -0.181363
     7  C    0.011327
     8  C    0.044967
     9  C    0.038017
    10  C    0.039736
    11  C    0.031176
    12  C    0.213361
    13  N   -0.280919
    14  C    0.140115
    15  C   -0.025580
    16  C    0.048132
    17  C   -0.099561
    18  S    0.163438
    19  C   -0.151293
    20  C    0.101112
    21  C    0.022083
    22  C    0.013460
    23  C   -0.036884
    24  C    0.069352
    25  C    0.080025
    26  C    0.190664
    27  O   -0.255969
    28  N   -0.150102
    29  C    0.005839
    30  C    0.027340
    31  C   -0.022481
    32  H    0.062402
    33  H    0.060653
    34  H   -0.021701
    35  H   -0.026761
    36  H   -0.025544
    37  H   -0.032687
    38  H    0.039723
    39  H    0.049589
    40  H   -0.025604
    41  H    0.020852
    42  H    0.023238
    43  H   -0.019521
    44  H   -0.043663
    45  H   -0.021149
    46  H   -0.008899
    47  H    0.095033
    48  H    0.009358
    49  H    0.025362
    50  H    0.029095
    51  H    0.025758
    52  H    0.017680
 Sum of Mulliken atomic charges =   0.00000

 Dipole moment (field-independent basis, Debye):
    X=             -1.7640    Y=              7.4959    Z=              2.5485  Tot=              8.1114
 Quadrupole moment (field-independent basis, Debye-Ang):
   XX=           -196.1651   YY=           -185.7832   ZZ=           -180.3842
   XY=             -0.6342   XZ=              0.7964   YZ=            -12.6875

 Normal termination of Gaussian 09 at Sat Sep 10 08:06:56 2022.
