 Gaussian 09, Revision C.01,
 Gaussian 09:  EM64L-G09RevC.01 23-Sep-2011

 ---------------------------------------
 #p b3lyp/cc-pvdz pop=(chelpg,readradii)
 ---------------------------------------

 (Enter /opt/gaussian/l101.exe)
 ---------
 Mol19.log
 ---------
 Charge =  0 Multiplicity = 1

                         Standard orientation:
 ---------------------------------------------------------------------
 Center     Atomic      Atomic             Coordinates (Angstroms)
 Number     Number       Type             X           Y           Z
 ---------------------------------------------------------------------
      1          8           0        0.851210   -1.449470   -0.140990
      2          6           0        0.949440   -0.373190   -0.701330
      3          6           0        2.326650    0.142260   -1.168350
      4          7           0        3.366880   -0.833340   -0.963620
      5          7           0        3.943530   -1.427110   -2.054070
      6          7           0        4.864110   -2.239950   -1.665330
      7          6           0        4.922060   -2.205430   -0.285250
      8          6           0        5.757490   -2.890900    0.614510
      9          6           0        5.585800   -2.635440    1.967590
     10          6           0        4.602070   -1.722360    2.426710
     11          6           0        3.765040   -1.040490    1.552810
     12          6           0        3.947800   -1.298270    0.184150
     13          7           0       -0.130830    0.461140   -0.960570
     14          6           0        0.062130    1.796350   -1.540130
     15          6           0        0.516320    2.872560   -0.574490
     16          6           0        0.952270    4.168470   -1.014140
     17          6           0        1.303290    4.995770    0.018610
     18         16           0        1.114250    4.213160    1.557370
     19          6           0        0.553510    2.755880    0.794000
     20          6           0       -1.469770    0.050960   -0.638830
     21          6           0       -2.397740    0.991540   -0.164300
     22          6           0       -3.713810    0.618670    0.107600
     23          6           0       -4.155590   -0.702040   -0.080510
     24          6           0       -3.212980   -1.633760   -0.554690
     25          6           0       -1.896400   -1.273610   -0.830030
     26          6           0       -5.540120   -1.101630    0.206620
     27          6           0       -6.679070   -0.300910    0.241610
     28          7           0       -7.717690   -1.119590    0.550590
     29          7           0       -7.354640   -2.404340    0.726110
     30          6           0       -6.040060   -2.400410    0.517160
     31          1           0        2.321520    0.344340   -2.248550
     32          1           0        2.577570    1.081130   -0.649440
     33          1           0        6.507430   -3.592860    0.246870
     34          1           0        6.213880   -3.147380    2.699500
     35          1           0        4.495660   -1.557470    3.501250
     36          1           0        2.996730   -0.357290    1.915260
     37          1           0        0.776730    1.734390   -2.375720
     38          1           0       -0.894310    2.088370   -1.998210
     39          1           0        1.002690    4.467050   -2.062590
     40          1           0        1.668410    6.019530   -0.033370
     41          1           0        0.275390    1.895400    1.399020
     42          1           0       -2.092350    2.022460    0.019950
     43          1           0       -4.400910    1.370430    0.502110
     44          1           0       -3.519900   -2.665720   -0.736070
     45          1           0       -1.198270   -2.023920   -1.192950
     46          1           0       -6.824010    0.759020    0.051510
     47          1           0       -5.481420   -3.329060    0.616120
     48          1           0       -8.692060   -0.864980    0.647530
 ---------------------------------------------------------------------

 SCF Done:  E(RB3LYP) =  -1651.14321175     A.U. after   15 cycles

 The electronic state is 1-A.
 Alpha  occ. eigenvalues --  -88.92432 -19.12600 -14.41056 -14.40920 -14.38747
 Alpha  occ. eigenvalues --  -14.38712 -14.34877 -14.34530 -10.30724 -10.25858
 Alpha  occ. eigenvalues --  -10.25569 -10.24004 -10.23288 -10.23012 -10.23005
 Alpha  occ. eigenvalues --  -10.22916 -10.22114 -10.21235 -10.20848 -10.20717
 Alpha  occ. eigenvalues --  -10.20705 -10.20152 -10.20071 -10.19866 -10.19803
 Alpha  occ. eigenvalues --  -10.19641 -10.19539 -10.19488 -10.19479 -10.19235
 Alpha  occ. eigenvalues --   -7.98636  -5.94960  -5.94580  -5.94271  -1.09184
 Alpha  occ. eigenvalues --   -1.05809  -1.05163  -0.96569  -0.92242  -0.89844
 Alpha  occ. eigenvalues --   -0.86521  -0.86174  -0.82350  -0.80616  -0.78486
 Alpha  occ. eigenvalues --   -0.77723  -0.76790  -0.75596  -0.74983  -0.74557
 Alpha  occ. eigenvalues --   -0.73325  -0.70276  -0.65770  -0.64644  -0.62599
 Alpha  occ. eigenvalues --   -0.62030  -0.60986  -0.60039  -0.58750  -0.58209
 Alpha  occ. eigenvalues --   -0.56817  -0.56021  -0.54998  -0.53771  -0.52605
 Alpha  occ. eigenvalues --   -0.52239  -0.51676  -0.50761  -0.47901  -0.47688
 Alpha  occ. eigenvalues --   -0.46507  -0.46393  -0.45862  -0.45241  -0.44757
 Alpha  occ. eigenvalues --   -0.44448  -0.44251  -0.43907  -0.43143  -0.42892
 Alpha  occ. eigenvalues --   -0.42440  -0.42205  -0.41067  -0.40528  -0.40257
 Alpha  occ. eigenvalues --   -0.39337  -0.38794  -0.37657  -0.37596  -0.37316
 Alpha  occ. eigenvalues --   -0.36453  -0.36176  -0.35381  -0.35195  -0.32819
 Alpha  occ. eigenvalues --   -0.31242  -0.30896  -0.29371  -0.27567  -0.27034
 Alpha  occ. eigenvalues --   -0.26677  -0.26390  -0.26145  -0.25901  -0.25516
 Alpha  occ. eigenvalues --   -0.24699  -0.23231  -0.21530
 Alpha virt. eigenvalues --   -0.03966  -0.03465  -0.03373  -0.01651   0.00621
 Alpha virt. eigenvalues --    0.01050   0.01654   0.01780   0.02388   0.03794
 Alpha virt. eigenvalues --    0.04835   0.04933   0.06186   0.06598   0.06868

 Mulliken atomic charges:
              1
     1  O   -0.239751
     2  C    0.130589
     3  C    0.122516
     4  N   -0.227632
     5  N   -0.061792
     6  N   -0.182640
     7  C    0.010729
     8  C    0.044244
     9  C    0.037723
    10  C    0.039094
    11  C    0.033126
    12  C    0.212868
    13  N   -0.279094
    14  C    0.141920
    15  C   -0.025473
    16  C    0.047673
    17  C   -0.100234
    18  S    0.161812
    19  C   -0.149996
    20  C    0.092135
    21  C    0.027151
    22  C   -0.002287
    23  C    0.062857
    24  C   -0.002150
    25  C    0.082337
    26  C   -0.060364
    27  C    0.089081
    28  N    0.002869
    29  N   -0.171290
    30  C    0.090950
    31  H    0.060418
    32  H    0.060385
    33  H   -0.022885
    34  H   -0.027645
    35  H   -0.025850
    36  H   -0.031602
    37  H    0.037015
    38  H    0.047884
    39  H   -0.027018
    40  H    0.019439
    41  H    0.024344
    42  H   -0.023931
    43  H   -0.048638
    44  H   -0.037141
    45  H   -0.015104
    46  H   -0.003594
    47  H   -0.013783
    48  H    0.100736
 Sum of Mulliken atomic charges =   0.00000

 Dipole moment (field-independent basis, Debye):
    X=             -3.4513    Y=              6.8335    Z=              0.8192  Tot=              7.6993
 Quadrupole moment (field-independent basis, Debye-Ang):
   XX=           -170.5710   YY=           -175.3447   ZZ=           -179.4211
   XY=             -5.8223   XZ=             14.0833   YZ=             -8.5199

 Normal termination of Gaussian 09 at Sat Sep 10 09:49:05 2022.
