 Gaussian 09, Revision C.01,
 Gaussian 09:  EM64L-G09RevC.01 23-Sep-2011

 ---------------------------------------
 #p b3lyp/cc-pvdz pop=(chelpg,readradii)
 ---------------------------------------

 (Enter /opt/gaussian/l101.exe)
 ---------
 Mol14.log
 ---------
 Charge =  0 Multiplicity = 1

                         Standard orientation:
 ---------------------------------------------------------------------
 Center     Atomic      Atomic             Coordinates (Angstroms)
 Number     Number       Type             X           Y           Z
 ---------------------------------------------------------------------
      1          8           0        0.982331   -1.464540   -0.428810
      2          6           0        1.152641   -0.346890   -0.877160
      3          6           0        2.558771    0.135860   -1.289720
      4          7           0        3.560751   -0.871870   -1.061090
      5          7           0        4.098421   -1.538380   -2.128820
      6          7           0        4.962301   -2.396560   -1.709280
      7          6           0        5.016521   -2.323360   -0.330240
      8          6           0        5.799501   -3.033800    0.596410
      9          6           0        5.638461   -2.724700    1.939950
     10          6           0        4.718561   -1.731820    2.363390
     11          6           0        3.934481   -1.022410    1.462080
     12          6           0        4.103221   -1.338940    0.104170
     13          7           0        0.123351    0.567990   -1.062560
     14          6           0        0.380931    1.941150   -1.516560
     15          6           0        0.853201    2.890790   -0.433070
     16          6           0        1.452031    4.162180   -0.727400
     17          6           0        1.768811    4.879210    0.395340
     18         16           0        1.344541    4.019030    1.842600
     19          6           0        0.733291    2.680170    0.919030
     20          6           0       -1.228569    0.188130   -0.757520
     21          6           0       -2.251949    0.448060   -1.680080
     22          6           0       -3.573859    0.115660   -1.387540
     23          6           0       -3.915029   -0.509800   -0.176030
     24          6           0       -2.875849   -0.786770    0.730420
     25          6           0       -1.554629   -0.443750    0.451380
     26          6           0       -5.321309   -0.870250    0.132430
     27          6           0       -6.397819   -0.061820   -0.271090
     28          6           0       -7.701849   -0.446490    0.045190
     29          7           0       -8.015129   -1.558880    0.724060
     30          6           0       -6.986999   -2.328670    1.107680
     31          6           0       -5.647549   -2.037720    0.843430
     32          1           0        2.587781    0.349770   -2.367640
     33          1           0        2.821241    1.060040   -0.750990
     34          1           0        6.502951   -3.795360    0.256670
     35          1           0        6.227221   -3.254170    2.691740
     36          1           0        4.621831   -1.522840    3.431150
     37          1           0        3.221491   -0.268270    1.797340
     38          1           0        1.104811    1.935960   -2.345520
     39          1           0       -0.553719    2.326600   -1.946840
     40          1           0        1.640871    4.523210   -1.739810
     41          1           0        2.235171    5.860280    0.458440
     42          1           0        0.305921    1.819060    1.426990
     43          1           0       -2.015759    0.894110   -2.648090
     44          1           0       -4.346449    0.310070   -2.133800
     45          1           0       -3.105699   -1.255280    1.689250
     46          1           0       -0.771429   -0.677360    1.170320
     47          1           0       -6.223849    0.874380   -0.805130
     48          1           0       -8.544729    0.182380   -0.261410
     49          1           0       -7.248069   -3.240140    1.656160
     50          1           0       -4.868799   -2.730820    1.166980
 ---------------------------------------------------------------------

 SCF Done:  E(RB3LYP) =  -1673.22385858     A.U. after   15 cycles

 The electronic state is 1-A.
 Alpha  occ. eigenvalues --  -88.92546 -19.12947 -14.41198 -14.39014 -14.38984
 Alpha  occ. eigenvalues --  -14.34793 -14.32815 -10.31079 -10.26271 -10.25923
 Alpha  occ. eigenvalues --  -10.25067 -10.23378 -10.23236 -10.23124 -10.22668
 Alpha  occ. eigenvalues --  -10.22634 -10.22327 -10.22219 -10.21706 -10.21362
 Alpha  occ. eigenvalues --  -10.21262 -10.21145 -10.21125 -10.20936 -10.20818
 Alpha  occ. eigenvalues --  -10.20548 -10.20366 -10.20307 -10.20169 -10.19955
 Alpha  occ. eigenvalues --  -10.19545  -7.98750  -5.95073  -5.94693  -5.94388
 Alpha  occ. eigenvalues --   -1.09476  -1.06187  -0.96980  -0.94446  -0.92570
 Alpha  occ. eigenvalues --   -0.89986  -0.87792  -0.86510  -0.82599  -0.78914
 Alpha  occ. eigenvalues --   -0.78181  -0.77214  -0.77035  -0.76314  -0.75625
 Alpha  occ. eigenvalues --   -0.74731  -0.73932  -0.70610  -0.66585  -0.64974
 Alpha  occ. eigenvalues --   -0.64404  -0.62530  -0.62125  -0.61806  -0.59540
 Alpha  occ. eigenvalues --   -0.59019  -0.57351  -0.56334  -0.54350  -0.53698
 Alpha  occ. eigenvalues --   -0.52928  -0.52575  -0.51799  -0.50912  -0.49595
 Alpha  occ. eigenvalues --   -0.48340  -0.47750  -0.46915  -0.46765  -0.46208
 Alpha  occ. eigenvalues --   -0.46167  -0.45179  -0.44645  -0.44253  -0.43836
 Alpha  occ. eigenvalues --   -0.43729  -0.43130  -0.42868  -0.42425  -0.41034
 Alpha  occ. eigenvalues --   -0.40566  -0.40332  -0.39691  -0.38969  -0.38291
 Alpha  occ. eigenvalues --   -0.37900  -0.37665  -0.37391  -0.36768  -0.36251
 Alpha  occ. eigenvalues --   -0.35776  -0.35654  -0.33086  -0.31700  -0.31198
 Alpha  occ. eigenvalues --   -0.28426  -0.28096  -0.26943  -0.26850  -0.26840
 Alpha  occ. eigenvalues --   -0.26611  -0.25943  -0.25735  -0.25021  -0.23964
 Alpha  occ. eigenvalues --   -0.23534
 Alpha virt. eigenvalues --   -0.05859  -0.04271  -0.03622  -0.02910  -0.01993
 Alpha virt. eigenvalues --   -0.00964   0.00544   0.01314   0.01625   0.02590
 Alpha virt. eigenvalues --    0.03449   0.04267   0.05346   0.05929   0.06559

 Mulliken atomic charges:
              1
     1  O   -0.234227
     2  C    0.132242
     3  C    0.123026
     4  N   -0.227639
     5  N   -0.059009
     6  N   -0.181689
     7  C    0.011521
     8  C    0.045201
     9  C    0.037776
    10  C    0.039938
    11  C    0.026585
    12  C    0.213919
    13  N   -0.289429
    14  C    0.151328
    15  C   -0.030860
    16  C    0.048628
    17  C   -0.100670
    18  S    0.161168
    19  C   -0.138051
    20  C    0.087335
    21  C    0.046232
    22  C    0.023522
    23  C    0.042923
    24  C    0.018332
    25  C    0.078537
    26  C    0.068673
    27  C   -0.041521
    28  C    0.116662
    29  N   -0.172836
    30  C    0.116605
    31  C   -0.041239
    32  H    0.062701
    33  H    0.060585
    34  H   -0.021519
    35  H   -0.026779
    36  H   -0.025794
    37  H   -0.032440
    38  H    0.032267
    39  H    0.049559
    40  H   -0.027293
    41  H    0.019640
    42  H    0.010421
    43  H   -0.023845
    44  H   -0.031267
    45  H   -0.030206
    46  H   -0.017918
    47  H   -0.032401
    48  H   -0.006685
    49  H   -0.005324
    50  H   -0.026683
 Sum of Mulliken atomic charges =   0.00000

 Dipole moment (field-independent basis, Debye):
    X=             -0.0277    Y=              5.8435    Z=              0.9802  Tot=              5.9252
 Quadrupole moment (field-independent basis, Debye-Ang):
   XX=           -217.9990   YY=           -180.4964   ZZ=           -179.2830
   XY=              5.1933   XZ=             19.0457   YZ=            -16.9069

 Normal termination of Gaussian 09 at Sat Sep 10 08:44:58 2022.
