 Gaussian 09, Revision C.01,
 Gaussian 09:  EM64L-G09RevC.01 23-Sep-2011

 ---------------------------------------
 #p b3lyp/cc-pvdz pop=(chelpg,readradii)
 ---------------------------------------

 (Enter /opt/gaussian/l101.exe)
 ---------
 Mol13.log
 ---------
 Charge =  0 Multiplicity = 1

                         Standard orientation:
 ---------------------------------------------------------------------
 Center     Atomic      Atomic             Coordinates (Angstroms)
 Number     Number       Type             X           Y           Z
 ---------------------------------------------------------------------
      1          8           0        1.239641   -1.230789   -0.657860
      2          6           0        1.581101   -0.108769   -0.981650
      3          6           0        3.076381    0.234811   -1.150200
      4          7           0        3.914841   -0.920339   -0.962280
      5          7           0        4.507102   -1.498589   -2.052790
      6          7           0        5.205902   -2.512479   -1.675440
      7          6           0        5.089172   -2.637229   -0.304120
      8          6           0        5.660622   -3.565439    0.584020
      9          6           0        5.363762   -3.426389    1.932550
     10          6           0        4.514142   -2.390339    2.397760
     11          6           0        3.937842   -1.467099    1.534350
     12          6           0        4.244942   -1.610929    0.171330
     13          7           0        0.687111    0.929561   -1.222770
     14          6           0        1.165621    2.291281   -1.496460
     15          6           0        1.595591    3.091801   -0.283640
     16          6           0        2.283571    4.347471   -0.393550
     17          6           0        2.566401    4.911821    0.821330
     18         16           0        2.002501    3.923351    2.132880
     19          6           0        1.378061    2.738071    1.026390
     20          6           0       -0.729389    0.710541   -1.154630
     21          6           0       -1.306649   -0.488199   -1.608540
     22          6           0       -2.689319   -0.656040   -1.571770
     23          6           0       -3.526979    0.350650   -1.076430
     24          6           0       -2.952979    1.543300   -0.623480
     25          6           0       -1.570579    1.724511   -0.666400
     26          7           0       -4.945329    0.136110   -1.072660
     27         16           0       -5.687929   -0.407960    0.406510
     28          8           0       -4.854159   -0.051890    1.583470
     29          8           0       -7.088359    0.061600    0.287250
     30          6           0       -5.634998   -2.187320    0.223680
     31          6           0       -5.680528   -3.001980    1.495660
     32          6           0       -4.410568   -2.938680    0.691290
     33          1           0        3.278521    0.586581   -2.171670
     34          1           0        3.368031    1.033781   -0.450610
     35          1           0        6.311162   -4.358258    0.211850
     36          1           0        5.786882   -4.126909    2.655360
     37          1           0        4.302832   -2.321089    3.467160
     38          1           0        3.273121   -0.683479    1.899320
     39          1           0        1.997141    2.248151   -2.216690
     40          1           0        0.355461    2.817071   -2.022990
     41          1           0        2.556791    4.807711   -1.344550
     42          1           0        3.078791    5.850041    1.024460
     43          1           0        0.877161    1.849431    1.405210
     44          1           0       -0.676828   -1.285849   -1.992940
     45          1           0       -3.136428   -1.577400   -1.947990
     46          1           0       -3.588329    2.330040   -0.212480
     47          1           0       -1.149869    2.655421   -0.285290
     48          1           0       -5.480799    0.977770   -1.300950
     49          1           0       -6.191718   -2.507550   -0.658590
     50          1           0       -5.697378   -2.449750    2.437190
     51          1           0       -6.287118   -3.909310    1.468650
     52          1           0       -4.113038   -3.804490    0.095760
     53          1           0       -3.593248   -2.344490    1.103330
 ---------------------------------------------------------------------

 SCF Done:  E(RB3LYP) =  -2146.75535102     A.U. after   15 cycles

 The electronic state is 1-A.
 Alpha  occ. eigenvalues --  -89.10425 -88.92672 -19.13392 -19.13256 -19.13036
 Alpha  occ. eigenvalues --  -14.41277 -14.39391 -14.39096 -14.36671 -14.34884
 Alpha  occ. eigenvalues --  -10.31343 -10.26344 -10.26044 -10.25113 -10.23898
 Alpha  occ. eigenvalues --  -10.23823 -10.23519 -10.23297 -10.23287 -10.22427
 Alpha  occ. eigenvalues --  -10.21717 -10.21696 -10.21490 -10.21195 -10.20957
 Alpha  occ. eigenvalues --  -10.20861 -10.20571 -10.20531 -10.20453 -10.20157
 Alpha  occ. eigenvalues --  -10.19979 -10.19562  -8.13776  -7.98875  -6.10116
 Alpha  occ. eigenvalues --   -6.10073  -6.09903  -5.95198  -5.94817  -5.94511
 Alpha  occ. eigenvalues --   -1.10211  -1.09560  -1.06464  -0.99435  -0.97260
 Alpha  occ. eigenvalues --   -0.93476  -0.92646  -0.90122  -0.88863  -0.86547
 Alpha  occ. eigenvalues --   -0.85905  -0.79208  -0.78332  -0.77276  -0.76637
 Alpha  occ. eigenvalues --   -0.75637  -0.74849  -0.73944  -0.70840  -0.70072
 Alpha  occ. eigenvalues --   -0.65320  -0.64952  -0.63064  -0.62402  -0.62183
 Alpha  occ. eigenvalues --   -0.60297  -0.59076  -0.58425  -0.57460  -0.56465
 Alpha  occ. eigenvalues --   -0.54870  -0.53995  -0.53061  -0.52832  -0.52678
 Alpha  occ. eigenvalues --   -0.52121  -0.50758  -0.50315  -0.49715  -0.48240
 Alpha  occ. eigenvalues --   -0.47066  -0.46827  -0.46647  -0.45856  -0.44835
 Alpha  occ. eigenvalues --   -0.44732  -0.44184  -0.43852  -0.43532  -0.43359
 Alpha  occ. eigenvalues --   -0.42807  -0.42634  -0.41858  -0.41053  -0.40244
 Alpha  occ. eigenvalues --   -0.39577  -0.38901  -0.38703  -0.38286  -0.37730
 Alpha  occ. eigenvalues --   -0.37178  -0.36799  -0.36341  -0.35690  -0.34454
 Alpha  occ. eigenvalues --   -0.33831  -0.33586  -0.33169  -0.31475  -0.31326
 Alpha  occ. eigenvalues --   -0.31169  -0.30006  -0.29437  -0.28303  -0.27887
 Alpha  occ. eigenvalues --   -0.26992  -0.26760  -0.26720  -0.25909  -0.25058
 Alpha  occ. eigenvalues --   -0.23737  -0.23481
 Alpha virt. eigenvalues --   -0.04324  -0.03955  -0.03707  -0.02552   0.00444
 Alpha virt. eigenvalues --    0.00745   0.01416   0.02101   0.03425   0.04129
 Alpha virt. eigenvalues --    0.04479   0.04683   0.05595   0.05912   0.06599

 Mulliken atomic charges:
              1
     1  O   -0.237623
     2  C    0.133768
     3  C    0.122010
     4  N   -0.227708
     5  N   -0.061177
     6  N   -0.181738
     7  C    0.011189
     8  C    0.044689
     9  C    0.037896
    10  C    0.039666
    11  C    0.029348
    12  C    0.213364
    13  N   -0.279943
    14  C    0.140123
    15  C   -0.027638
    16  C    0.047781
    17  C   -0.099663
    18  S    0.166779
    19  C   -0.150518
    20  C    0.105802
    21  C    0.075252
    22  C    0.087071
    23  C   -0.002357
    24  C    0.086446
    25  C    0.015126
    26  N   -0.316405
    27  S    0.914377
    28  O   -0.443911
    29  O   -0.454165
    30  C   -0.207435
    31  C    0.017110
    32  C    0.010992
    33  H    0.062197
    34  H    0.061404
    35  H   -0.021905
    36  H   -0.026637
    37  H   -0.024671
    38  H   -0.031213
    39  H    0.038331
    40  H    0.048421
    41  H   -0.026480
    42  H    0.020695
    43  H    0.026021
    44  H   -0.009643
    45  H   -0.031087
    46  H   -0.032402
    47  H   -0.013669
    48  H    0.122447
    49  H    0.037707
    50  H    0.055062
    51  H    0.040039
    52  H    0.037329
    53  H    0.059551
 Sum of Mulliken atomic charges =   0.00000

 Dipole moment (field-independent basis, Debye):
    X=              0.7207    Y=              3.2053    Z=             -0.0885  Tot=              3.2865
 Quadrupole moment (field-independent basis, Debye-Ang):
   XX=           -230.6322   YY=           -176.6743   ZZ=           -199.1656
   XY=             27.7978   XZ=             22.1102   YZ=            -13.6617

 Normal termination of Gaussian 09 at Sat Sep 10 08:32:17 2022.
