 Gaussian 09, Revision C.01,
 Gaussian 09:  EM64L-G09RevC.01 23-Sep-2011

 ---------------------------------------
 #p b3lyp/cc-pvdz pop=(chelpg,readradii)
 ---------------------------------------

 (Enter /opt/gaussian/l101.exe)
 ---------
 Mol15.log
 ---------
 Charge =  0 Multiplicity = 1

                         Standard orientation:
 ---------------------------------------------------------------------
 Center     Atomic      Atomic             Coordinates (Angstroms)
 Number     Number       Type             X           Y           Z
 ---------------------------------------------------------------------
      1          8           0        1.003631   -1.441030   -0.135620
      2          6           0        1.149440   -0.380940   -0.714570
      3          6           0        2.548640    0.066571   -1.187270
      4          7           0        3.547580   -0.942389   -0.944340
      5          7           0        4.094111   -1.606879   -2.009190
      6          7           0        4.974781   -2.446539   -1.586680
      7          6           0        5.034491   -2.359919   -0.208890
      8          6           0        5.835271   -3.048878    0.719170
      9          6           0        5.675571   -2.732138    2.060770
     10          6           0        4.737671   -1.754589    2.481190
     11          6           0        3.935300   -1.067809    1.578990
     12          6           0        4.105270   -1.388779    0.222160
     13          7           0        0.105830    0.495620   -0.991210
     14          6           0        0.360389    1.814460   -1.584960
     15          6           0        0.853459    2.881280   -0.628230
     16          6           0        1.343789    4.153780   -1.078820
     17          6           0        1.723098    4.976740   -0.052620
     18         16           0        1.494748    4.218440    1.492960
     19          6           0        0.879339    2.777170    0.741550
     20          6           0       -1.249670    0.149689   -0.670140
     21          6           0       -2.139300    1.141589   -0.227480
     22          6           0       -3.473150    0.833888    0.039590
     23          6           0       -3.967170   -0.471122   -0.116860
     24          6           0       -3.064239   -1.455711   -0.559850
     25          6           0       -1.732580   -1.160301   -0.832940
     26          6           0       -5.384340   -0.836282    0.161930
     27          6           0       -6.323360    0.088177    0.658980
     28          6           0       -7.632390   -0.325623    0.896180
     29          6           0       -7.982859   -1.651313    0.634810
     30          6           0       -6.986609   -2.500203    0.145210
     31          7           0       -5.729059   -2.116512   -0.086330
     32          1           0        2.555970    0.233971   -2.273470
     33          1           0        2.834190    1.010371   -0.696210
     34          1           0        6.550291   -3.800498    0.381370
     35          1           0        6.277541   -3.244848    2.813770
     36          1           0        4.639381   -1.541909    3.548070
     37          1           0        3.202350   -0.332909    1.912640
     38          1           0        1.077539    1.710910   -2.414090
     39          1           0       -0.578851    2.141869   -2.054390
     40          1           0        1.411118    4.439150   -2.130000
     41          1           0        2.129618    5.984300   -0.113030
     42          1           0        0.562799    1.935280    1.353830
     43          1           0       -1.793421    2.164249   -0.072820
     44          1           0       -4.123541    1.640508    0.379900
     45          1           0       -3.436419   -2.470792   -0.693590
     46          1           0       -1.063889   -1.949721   -1.166960
     47          1           0       -6.039940    1.120298    0.864210
     48          1           0       -8.369940    0.381607    1.282900
     49          1           0       -8.995659   -2.020624    0.805370
     50          1           0       -7.213219   -3.549553   -0.073090
 ---------------------------------------------------------------------

 SCF Done:  E(RB3LYP) =  -1673.22905019     A.U. after   15 cycles

 The electronic state is 1-A.
 Alpha  occ. eigenvalues --  -88.92466 -19.12716 -14.40937 -14.38834 -14.38760
 Alpha  occ. eigenvalues --  -14.34542 -14.32845 -10.30825 -10.25919 -10.25624
 Alpha  occ. eigenvalues --  -10.24276 -10.23716 -10.23319 -10.23054 -10.22938
 Alpha  occ. eigenvalues --  -10.22780 -10.22158 -10.21391 -10.21268 -10.20863
 Alpha  occ. eigenvalues --  -10.20389 -10.20258 -10.20193 -10.20183 -10.20131
 Alpha  occ. eigenvalues --  -10.20071 -10.19827 -10.19656 -10.19326 -10.19250
 Alpha  occ. eigenvalues --  -10.19030  -7.98670  -5.94994  -5.94614  -5.94306
 Alpha  occ. eigenvalues --   -1.09205  -1.05930  -0.96698  -0.94852  -0.92272
 Alpha  occ. eigenvalues --   -0.89883  -0.86261  -0.86137  -0.80938  -0.79769
 Alpha  occ. eigenvalues --   -0.78340  -0.77526  -0.76699  -0.75492  -0.74798
 Alpha  occ. eigenvalues --   -0.74582  -0.73084  -0.70322  -0.66075  -0.64669
 Alpha  occ. eigenvalues --   -0.64209  -0.62276  -0.61860  -0.60837  -0.59098
 Alpha  occ. eigenvalues --   -0.58558  -0.56932  -0.56049  -0.54063  -0.53360
 Alpha  occ. eigenvalues --   -0.52647  -0.52277  -0.51564  -0.50693  -0.49357
 Alpha  occ. eigenvalues --   -0.48552  -0.47513  -0.46461  -0.46152  -0.45278
 Alpha  occ. eigenvalues --   -0.45149  -0.44914  -0.44337  -0.44119  -0.43258
 Alpha  occ. eigenvalues --   -0.43052  -0.42433  -0.42226  -0.41381  -0.41196
 Alpha  occ. eigenvalues --   -0.40816  -0.40299  -0.39382  -0.38902  -0.38244
 Alpha  occ. eigenvalues --   -0.37498  -0.37168  -0.36501  -0.36313  -0.36153
 Alpha  occ. eigenvalues --   -0.35374  -0.35030  -0.32831  -0.31244  -0.30922
 Alpha  occ. eigenvalues --   -0.29206  -0.27585  -0.27271  -0.26715  -0.26395
 Alpha  occ. eigenvalues --   -0.26002  -0.25838  -0.25580  -0.24716  -0.23268
 Alpha  occ. eigenvalues --   -0.22302
 Alpha virt. eigenvalues --   -0.05512  -0.03978  -0.03498  -0.03175  -0.00979
 Alpha virt. eigenvalues --   -0.00268   0.00950   0.01672   0.02352   0.03101
 Alpha virt. eigenvalues --    0.03798   0.04920   0.05388   0.06280   0.06847

 Mulliken atomic charges:
              1
     1  O   -0.236121
     2  C    0.131350
     3  C    0.122169
     4  N   -0.227858
     5  N   -0.061273
     6  N   -0.182370
     7  C    0.010897
     8  C    0.044458
     9  C    0.037830
    10  C    0.039281
    11  C    0.032443
    12  C    0.213196
    13  N   -0.280494
    14  C    0.141739
    15  C   -0.025776
    16  C    0.047736
    17  C   -0.099996
    18  S    0.162098
    19  C   -0.149843
    20  C    0.103646
    21  C    0.025950
    22  C   -0.018751
    23  C    0.024767
    24  C    0.059266
    25  C    0.088282
    26  C    0.094539
    27  C    0.005291
    28  C    0.089075
    29  C   -0.013677
    30  C    0.108369
    31  N   -0.205119
    32  H    0.061369
    33  H    0.060240
    34  H   -0.022664
    35  H   -0.027543
    36  H   -0.025869
    37  H   -0.031878
    38  H    0.037643
    39  H    0.048623
    40  H   -0.026715
    41  H    0.019680
    42  H    0.024392
    43  H   -0.024327
    44  H   -0.044175
    45  H   -0.032404
    46  H   -0.012717
    47  H   -0.028856
    48  H   -0.021260
    49  H   -0.023487
    50  H   -0.011155
 Sum of Mulliken atomic charges =   0.00000

 Dipole moment (field-independent basis, Debye):
    X=             -3.4326    Y=              6.1753    Z=              1.5302  Tot=              7.2290
 Quadrupole moment (field-independent basis, Debye-Ang):
   XX=           -172.5796   YY=           -178.0514   ZZ=           -183.7006
   XY=              9.1075   XZ=              7.0810   YZ=            -10.3067

 Normal termination of Gaussian 09 at Sat Sep 10 08:57:36 2022.
