 Gaussian 09, Revision C.01,
 Gaussian 09:  EM64L-G09RevC.01 23-Sep-2011

 ---------------------------------------
 #p b3lyp/cc-pvdz pop=(chelpg,readradii)
 ---------------------------------------

 (Enter /opt/gaussian/l101.exe)
 ---------
 Mol28.log
 ---------
 Charge =  0 Multiplicity = 1

                         Standard orientation:
 ---------------------------------------------------------------------
 Center     Atomic      Atomic             Coordinates (Angstroms)
 Number     Number       Type             X           Y           Z
 ---------------------------------------------------------------------
      1         17           0       -2.972340    5.916950   -0.456140
      2          6           0       -2.199390    4.453420    0.135850
      3          6           0       -2.169000    4.200310    1.510090
      4          6           0       -1.554200    3.031070    1.959080
      5          6           0       -0.978380    2.130880    1.055510
      6          6           0       -1.012520    2.392610   -0.319880
      7          6           0       -1.633230    3.565040   -0.777530
      8          6           0       -0.382460    1.461620   -1.350840
      9          7           0        0.028980    0.139490   -0.867180
     10          6           0       -0.900420   -0.876340   -0.666130
     11          8           0       -0.620770   -1.957710   -0.184620
     12          6           0       -2.348650   -0.560080   -1.095380
     13          7           0       -3.217410   -1.695680   -0.927980
     14          7           0       -3.659640   -2.365490   -2.037530
     15          7           0       -4.418831   -3.340850   -1.676450
     16          6           0       -4.497681   -3.345650   -0.296700
     17          6           0       -5.200231   -4.192439    0.578630
     18          6           0       -5.092071   -3.937969    1.938610
     19          6           0       -4.300631   -2.867660    2.428090
     20          6           0       -3.596790   -2.023720    1.578210
     21          6           0       -3.713710   -2.283710    0.202970
     22          6           0        1.421220   -0.075480   -0.587640
     23          6           0        2.197660    0.963380   -0.050400
     24          6           0        3.562820    0.787190    0.177070
     25          6           0        4.200330   -0.430060   -0.112490
     26          6           0        3.408940   -1.464430   -0.645490
     27          6           0        2.046840   -1.297940   -0.883700
     28          6           0        5.651680   -0.616261    0.131490
     29          6           0        6.295970   -0.072981    1.255340
     30          6           0        7.663430   -0.280401    1.427850
     31          6           0        8.352990   -1.031301    0.472070
     32          7           0        7.768050   -1.557951   -0.612490
     33          6           0        6.456900   -1.345831   -0.765340
     34          1           0       -2.621200    4.906110    2.206980
     35          1           0       -1.522900    2.818460    3.029820
     36          1           0       -0.500300    1.222300    1.425050
     37          1           0       -1.679250    3.790010   -1.845070
     38          1           0       -1.074180    1.343980   -2.199030
     39          1           0        0.513120    1.940100   -1.772320
     40          1           0       -2.739340    0.301980   -0.532000
     41          1           0       -2.387590   -0.310200   -2.165140
     42          1           0       -5.803371   -5.013389    0.188150
     43          1           0       -5.621341   -4.572699    2.652150
     44          1           0       -4.238501   -2.707620    3.506820
     45          1           0       -2.975840   -1.214660    1.964040
     46          1           0        1.742730    1.922940    0.198700
     47          1           0        4.142590    1.623900    0.572040
     48          1           0        3.862480   -2.433040   -0.864240
     49          1           0        1.465620   -2.124910   -1.283700
     50          1           0        5.724420    0.487099    1.999030
     51          1           0        8.187570    0.123609    2.296420
     52          1           0        9.426140   -1.219991    0.581500
     53          1           0        6.010560   -1.766701   -1.672580
 ---------------------------------------------------------------------

 SCF Done:  E(RB3LYP) =  -1812.07126944     A.U. after   15 cycles

 The electronic state is 1-A.
 Alpha  occ. eigenvalues -- -101.55901 -19.13372 -14.41362 -14.39508 -14.39172
 Alpha  occ. eigenvalues --  -14.34951 -14.33126 -10.31461 -10.27195 -10.26479
 Alpha  occ. eigenvalues --  -10.26228 -10.25059 -10.23524 -10.23364 -10.22783
 Alpha  occ. eigenvalues --  -10.22734 -10.22485 -10.22449 -10.22278 -10.21999
 Alpha  occ. eigenvalues --  -10.21488 -10.21445 -10.21405 -10.21261 -10.21009
 Alpha  occ. eigenvalues --  -10.20859 -10.20614 -10.20594 -10.20535 -10.20377
 Alpha  occ. eigenvalues --  -10.20238 -10.20035 -10.19622  -9.47718  -7.23979
 Alpha  occ. eigenvalues --   -7.23006  -7.22965  -1.09634  -1.06588  -0.97397
 Alpha  occ. eigenvalues --   -0.94699  -0.92745  -0.91150  -0.87562  -0.86609
 Alpha  occ. eigenvalues --   -0.85933  -0.82201  -0.80155  -0.78913  -0.77917
 Alpha  occ. eigenvalues --   -0.77123  -0.76603  -0.75847  -0.75211  -0.73870
 Alpha  occ. eigenvalues --   -0.72192  -0.66456  -0.65074  -0.64530  -0.63775
 Alpha  occ. eigenvalues --   -0.62954  -0.62544  -0.61874  -0.61024  -0.59402
 Alpha  occ. eigenvalues --   -0.57128  -0.54685  -0.53780  -0.53466  -0.52964
 Alpha  occ. eigenvalues --   -0.52663  -0.52075  -0.50160  -0.49551  -0.49398
 Alpha  occ. eigenvalues --   -0.48107  -0.47838  -0.46931  -0.46866  -0.46157
 Alpha  occ. eigenvalues --   -0.46052  -0.45064  -0.44997  -0.44921  -0.44678
 Alpha  occ. eigenvalues --   -0.43950  -0.43825  -0.43459  -0.42191  -0.41093
 Alpha  occ. eigenvalues --   -0.40913  -0.40741  -0.40126  -0.39682  -0.38551
 Alpha  occ. eigenvalues --   -0.38205  -0.38122  -0.37779  -0.36898  -0.36846
 Alpha  occ. eigenvalues --   -0.35926  -0.35757  -0.34878  -0.33243  -0.32853
 Alpha  occ. eigenvalues --   -0.31713  -0.31355  -0.29203  -0.28502  -0.28013
 Alpha  occ. eigenvalues --   -0.27430  -0.26862  -0.26764  -0.26652  -0.26016
 Alpha  occ. eigenvalues --   -0.25125  -0.23707  -0.23190
 Alpha virt. eigenvalues --   -0.05277  -0.04512  -0.04369  -0.03930  -0.03227
 Alpha virt. eigenvalues --   -0.02405  -0.01093   0.00544   0.01150   0.01860
 Alpha virt. eigenvalues --    0.03313   0.03859   0.05256   0.05752   0.06593

 Mulliken atomic charges:
              1
     1  Cl  -0.076725
     2  C   -0.143337
     3  C    0.119112
     4  C    0.052341
     5  C    0.022139
     6  C   -0.088032
     7  C    0.119217
     8  C    0.151134
     9  N   -0.283663
    10  C    0.129086
    11  O   -0.234471
    12  C    0.122669
    13  N   -0.228292
    14  N   -0.060266
    15  N   -0.180968
    16  C    0.011524
    17  C    0.045291
    18  C    0.038105
    19  C    0.039909
    20  C    0.030199
    21  C    0.213635
    22  C    0.101171
    23  C    0.020952
    24  C    0.017384
    25  C    0.034288
    26  C    0.016812
    27  C    0.077348
    28  C   -0.042742
    29  C    0.074690
    30  C   -0.008173
    31  C    0.105545
    32  N   -0.172751
    33  C    0.099299
    34  H   -0.014781
    35  H   -0.012402
    36  H   -0.015106
    37  H   -0.031391
    38  H    0.043190
    39  H    0.054098
    40  H    0.058010
    41  H    0.063033
    42  H   -0.021235
    43  H   -0.026375
    44  H   -0.025521
    45  H   -0.032753
    46  H   -0.022866
    47  H   -0.036672
    48  H   -0.028118
    49  H   -0.010452
    50  H   -0.027956
    51  H   -0.023110
    52  H   -0.002921
    53  H   -0.009100
 Sum of Mulliken atomic charges =   0.00000

 Dipole moment (field-independent basis, Debye):
    X=              0.9866    Y=              4.8532    Z=              3.5781  Tot=              6.1098
 Quadrupole moment (field-independent basis, Debye-Ang):
   XX=           -212.0972   YY=           -209.6845   ZZ=           -189.3079
   XY=              2.9294   XZ=             -2.1689   YZ=             -6.6435

 Normal termination of Gaussian 09 at Sat Sep 10 11:44:48 2022.
