 Gaussian 09, Revision C.01,
 Gaussian 09:  EM64L-G09RevC.01 23-Sep-2011

 ---------------------------------------
 #p b3lyp/cc-pvdz pop=(chelpg,readradii)
 ---------------------------------------

 (Enter /opt/gaussian/l101.exe)
 ---------
 Mol20.log
 ---------
 Charge =  0 Multiplicity = 1

                         Standard orientation:
 ---------------------------------------------------------------------
 Center     Atomic      Atomic             Coordinates (Angstroms)
 Number     Number       Type             X           Y           Z
 ---------------------------------------------------------------------
      1          6           0       -8.830640   -0.602650    0.800121
      2          7           0       -7.474490   -0.943650    0.412191
      3          6           0       -7.030380   -2.154590   -0.046759
      4          7           0       -5.743380   -2.146440   -0.314679
      5          6           0       -5.309140   -0.866440   -0.019479
      6          6           0       -6.377620   -0.108660    0.433651
      7          6           0       -3.903840   -0.477540   -0.198689
      8          6           0       -2.969190   -1.413000   -0.678089
      9          6           0       -1.631110   -1.076740   -0.864569
     10          6           0       -1.177410    0.219330   -0.569699
     11          6           0       -2.101370    1.159940   -0.086209
     12          6           0       -3.441090    0.816460    0.090871
     13          7           0        0.191550    0.603400   -0.791429
     14          6           0        0.450930    1.937250   -1.358909
     15          6           0        1.061460    2.941680   -0.401649
     16          6           0        0.828400    2.973710    1.015201
     17          6           0        1.468800    4.011510    1.639981
     18         16           0        2.372950    4.977560    0.516151
     19          6           0        1.886730    3.963850   -0.806809
     20          6           0        1.224410   -0.268770   -0.478569
     21          8           0        1.052080   -1.359480    0.037321
     22          6           0        2.650520    0.222650   -0.791739
     23          7           0        3.614450   -0.851850   -0.779409
     24          7           0        4.239280   -1.182310   -1.952039
     25          7           0        5.106750   -2.109380   -1.732549
     26          6           0        5.082900   -2.417900   -0.386369
     27          6           0        5.842210   -3.341870    0.354021
     28          6           0        5.602130   -3.418490    1.718181
     29          6           0        4.622220   -2.602900    2.340931
     30          6           0        3.857700   -1.691350    1.624771
     31          6           0        4.112400   -1.610250    0.245281
     32          1           0       -8.872860   -0.300520    1.858461
     33          1           0       -9.221360    0.219420    0.179931
     34          1           0       -9.473690   -1.482080    0.660991
     35          1           0       -7.701030   -3.004600   -0.162309
     36          1           0       -6.459760    0.923010    0.761961
     37          1           0       -3.317350   -2.419620   -0.911199
     38          1           0       -0.933500   -1.825760   -1.232129
     39          1           0       -1.780990    2.172520    0.163761
     40          1           0       -4.129170    1.575860    0.468771
     41          1           0        1.088110    1.845920   -2.252739
     42          1           0       -0.516670    2.307520   -1.723389
     43          1           0        0.219390    2.241670    1.545451
     44          1           0        1.466350    4.263340    2.698531
     45          1           0        2.239230    4.179960   -1.814009
     46          1           0        2.723940    0.667750   -1.791999
     47          1           0        2.935450    0.998200   -0.062189
     48          1           0        6.588050   -3.965970   -0.140529
     49          1           0        6.169850   -4.122860    2.329721
     50          1           0        4.457050   -2.704610    3.415951
     51          1           0        3.081860   -1.094040    2.102641
 ---------------------------------------------------------------------

 SCF Done:  E(RB3LYP) =  -1690.47332334     A.U. after   15 cycles

 The electronic state is 1-A.
 Alpha  occ. eigenvalues --  -88.92148 -19.11930 -14.40497 -14.39833 -14.38321
 Alpha  occ. eigenvalues --  -14.38057 -14.34122 -14.31110 -10.30092 -10.25313
 Alpha  occ. eigenvalues --  -10.25229 -10.24978 -10.24279 -10.23282 -10.22878
 Alpha  occ. eigenvalues --  -10.22679 -10.22453 -10.21743 -10.21649 -10.20916
 Alpha  occ. eigenvalues --  -10.20742 -10.20417 -10.19646 -10.19578 -10.19524
 Alpha  occ. eigenvalues --  -10.19306 -10.19295 -10.19204 -10.18816 -10.18658
 Alpha  occ. eigenvalues --  -10.18268  -7.98352  -5.94672  -5.94293  -5.93994
 Alpha  occ. eigenvalues --   -1.08730  -1.05137  -1.02500  -0.95813  -0.91730
 Alpha  occ. eigenvalues --   -0.89669  -0.89460  -0.85726  -0.85350  -0.78816
 Alpha  occ. eigenvalues --   -0.77613  -0.76810  -0.76104  -0.75188  -0.74540
 Alpha  occ. eigenvalues --   -0.74304  -0.73630  -0.71317  -0.69617  -0.64816
 Alpha  occ. eigenvalues --   -0.64167  -0.61778  -0.61500  -0.59983  -0.58587
 Alpha  occ. eigenvalues --   -0.57900  -0.57590  -0.56507  -0.55194  -0.54194
 Alpha  occ. eigenvalues --   -0.52808  -0.52153  -0.51865  -0.51005  -0.50554
 Alpha  occ. eigenvalues --   -0.48408  -0.47664  -0.47192  -0.46060  -0.45882
 Alpha  occ. eigenvalues --   -0.45165  -0.44571  -0.44455  -0.43907  -0.43546
 Alpha  occ. eigenvalues --   -0.42810  -0.42471  -0.42289  -0.41878  -0.41481
 Alpha  occ. eigenvalues --   -0.41313  -0.41028  -0.40690  -0.39319  -0.38634
 Alpha  occ. eigenvalues --   -0.38331  -0.37108  -0.36867  -0.36567  -0.35989
 Alpha  occ. eigenvalues --   -0.35616  -0.34916  -0.34518  -0.32388  -0.30642
 Alpha  occ. eigenvalues --   -0.30317  -0.27602  -0.27321  -0.27013  -0.26487
 Alpha  occ. eigenvalues --   -0.25982  -0.25405  -0.25110  -0.24844  -0.24251
 Alpha  occ. eigenvalues --   -0.22697  -0.20480
 Alpha virt. eigenvalues --   -0.03541  -0.03449  -0.03007  -0.00922   0.00921
 Alpha virt. eigenvalues --    0.01610   0.02341   0.02424   0.03005   0.04218
 Alpha virt. eigenvalues --    0.04399   0.04997   0.06555   0.07103   0.07172

 Mulliken atomic charges:
              1
     1  C    0.080060
     2  N   -0.161408
     3  C    0.137361
     4  N   -0.222674
     5  C    0.089366
     6  C    0.017265
     7  C    0.017448
     8  C    0.042677
     9  C    0.088002
    10  C    0.096107
    11  C    0.023618
    12  C   -0.018611
    13  N   -0.284293
    14  C    0.156071
    15  C   -0.040413
    16  C    0.046791
    17  C   -0.098399
    18  S    0.159473
    19  C   -0.145480
    20  C    0.137181
    21  O   -0.246255
    22  C    0.129928
    23  N   -0.227785
    24  N   -0.063948
    25  N   -0.183751
    26  C    0.010371
    27  C    0.042962
    28  C    0.037333
    29  C    0.037994
    30  C    0.038807
    31  C    0.209132
    32  H    0.048125
    33  H    0.047746
    34  H    0.040481
    35  H    0.002003
    36  H   -0.011501
    37  H   -0.031253
    38  H   -0.017379
    39  H   -0.032271
    40  H   -0.055469
    41  H    0.026676
    42  H    0.052331
    43  H   -0.006872
    44  H    0.017826
    45  H    0.006057
    46  H    0.049861
    47  H    0.068662
    48  H   -0.024729
    49  H   -0.029301
    50  H   -0.026888
    51  H   -0.029035
 Sum of Mulliken atomic charges =   0.00000

 Dipole moment (field-independent basis, Debye):
    X=             -7.0750    Y=              5.4398    Z=              3.0615  Tot=              9.4351
 Quadrupole moment (field-independent basis, Debye-Ang):
   XX=           -140.0603   YY=           -183.6777   ZZ=           -183.3487
   XY=              4.6932   XZ=              3.5815   YZ=             -6.6867

 Normal termination of Gaussian 09 at Sat Sep 10 10:01:43 2022.
