 Gaussian 09, Revision C.01,
 Gaussian 09:  EM64L-G09RevC.01 23-Sep-2011

 ---------------------------------------
 #p b3lyp/cc-pvdz pop=(chelpg,readradii)
 ---------------------------------------

 (Enter /opt/gaussian/l101.exe)
 ---------
 Mol21.log
 ---------
 Charge =  0 Multiplicity = 1

                         Standard orientation:
 ---------------------------------------------------------------------
 Center     Atomic      Atomic             Coordinates (Angstroms)
 Number     Number       Type             X           Y           Z
 ---------------------------------------------------------------------
      1          8           0        0.830221   -1.442980   -0.101209
      2          6           0        0.934860   -0.377380   -0.680739
      3          6           0        2.314220    0.118640   -1.162399
      4          7           0        3.347881   -0.863059   -0.949859
      5          7           0        3.933131   -1.455109   -2.036299
      6          7           0        4.851801   -2.267649   -1.641739
      7          6           0        4.900301   -2.233399   -0.261419
      8          6           0        5.730491   -2.918179    0.643821
      9          6           0        5.549921   -2.662839    1.995711
     10          6           0        4.562021   -1.750959    2.448411
     11          6           0        3.729761   -1.070299    1.569181
     12          6           0        3.921921   -1.327329    0.201591
     13          7           0       -0.138260    0.461930   -0.948559
     14          6           0        0.061000    1.785050   -1.552279
     15          6           0        0.533100    2.873870   -0.609449
     16          6           0        0.972520    4.159560   -1.075049
     17          6           0        1.340139    5.001640   -0.060229
     18         16           0        1.163209    4.245630    1.493351
     19          6           0        0.584780    2.779480    0.760141
     20          6           0       -1.480870    0.064010   -0.620699
     21          6           0       -2.392190    1.012319   -0.129229
     22          6           0       -3.712400    0.654589    0.141831
     23          6           0       -4.165349   -0.659551   -0.057529
     24          6           0       -3.242499   -1.601791   -0.546019
     25          6           0       -1.924209   -1.252701   -0.826369
     26          6           0       -5.549829   -1.062881    0.225851
     27          6           0       -6.596980   -0.306262    0.725621
     28          7           0       -7.670189   -1.166982    0.801171
     29          6           0       -7.245479   -2.387492    0.354661
     30          7           0       -5.979829   -2.360491    0.001831
     31          1           0        2.306130    0.306030   -2.245179
     32          1           0        2.576080    1.062390   -0.657799
     33          1           0        6.483341   -3.619559    0.281001
     34          1           0        6.173731   -3.174229    2.731701
     35          1           0        4.447991   -1.586639    3.522281
     36          1           0        2.956790   -0.389730    1.926271
     37          1           0        0.767060    1.704170   -2.393819
     38          1           0       -0.897760    2.077830   -2.004959
     39          1           0        1.013209    4.440340   -2.128849
     40          1           0        1.711139    6.021990   -0.133319
     41          1           0        0.307690    1.930630    1.381821
     42          1           0       -2.072690    2.038739    0.056461
     43          1           0       -4.392230    1.419999    0.522681
     44          1           0       -3.583269   -2.624481   -0.709589
     45          1           0       -1.234599   -2.007080   -1.198259
     46          1           0       -6.677270    0.732758    1.027951
     47          1           0       -7.902519   -3.253652    0.310411
     48          1           0       -8.599049   -0.934792    1.129061
 ---------------------------------------------------------------------

 SCF Done:  E(RB3LYP) =  -1651.16370032     A.U. after   15 cycles

 The electronic state is 1-A.
 Alpha  occ. eigenvalues --  -88.92141 -19.12079 -14.40617 -14.39792 -14.38450
 Alpha  occ. eigenvalues --  -14.38160 -14.34233 -14.31428 -10.30228 -10.25433
 Alpha  occ. eigenvalues --  -10.25176 -10.24756 -10.23303 -10.23004 -10.22692
 Alpha  occ. eigenvalues --  -10.22617 -10.22312 -10.21780 -10.21095 -10.20939
 Alpha  occ. eigenvalues --  -10.20564 -10.19858 -10.19691 -10.19526 -10.19423
 Alpha  occ. eigenvalues --  -10.19374 -10.19288 -10.18976 -10.18693 -10.18308
 Alpha  occ. eigenvalues --   -7.98345  -5.94669  -5.94290  -5.93980  -1.08878
 Alpha  occ. eigenvalues --   -1.05292  -1.02234  -0.96032  -0.91910  -0.89528
 Alpha  occ. eigenvalues --   -0.88306  -0.85905  -0.85299  -0.78921  -0.77791
 Alpha  occ. eigenvalues --   -0.76949  -0.76163  -0.74839  -0.74316  -0.74171
 Alpha  occ. eigenvalues --   -0.72514  -0.69861  -0.65337  -0.64361  -0.62698
 Alpha  occ. eigenvalues --   -0.61759  -0.60719  -0.59891  -0.58400  -0.57809
 Alpha  occ. eigenvalues --   -0.56555  -0.56081  -0.55472  -0.53368  -0.52288
 Alpha  occ. eigenvalues --   -0.51881  -0.51241  -0.50323  -0.47535  -0.46968
 Alpha  occ. eigenvalues --   -0.46311  -0.46126  -0.45447  -0.44724  -0.44360
 Alpha  occ. eigenvalues --   -0.44125  -0.44074  -0.43800  -0.42864  -0.42618
 Alpha  occ. eigenvalues --   -0.42301  -0.41844  -0.41443  -0.40557  -0.39842
 Alpha  occ. eigenvalues --   -0.38872  -0.38365  -0.37246  -0.36997  -0.36575
 Alpha  occ. eigenvalues --   -0.36159  -0.35854  -0.35077  -0.34531  -0.32521
 Alpha  occ. eigenvalues --   -0.31161  -0.30594  -0.28298  -0.27629  -0.27032
 Alpha  occ. eigenvalues --   -0.26425  -0.26115  -0.25637  -0.25143  -0.25021
 Alpha  occ. eigenvalues --   -0.24406  -0.22922  -0.20640
 Alpha virt. eigenvalues --   -0.03677  -0.03161  -0.03027  -0.00875   0.01042
 Alpha virt. eigenvalues --    0.01467   0.01998   0.02453   0.02707   0.03886
 Alpha virt. eigenvalues --    0.04090   0.05246   0.06382   0.06702   0.07141

 Mulliken atomic charges:
              1
     1  O   -0.239781
     2  C    0.128837
     3  C    0.122452
     4  N   -0.227264
     5  N   -0.061878
     6  N   -0.183409
     7  C    0.010560
     8  C    0.043868
     9  C    0.037568
    10  C    0.038736
    11  C    0.034627
    12  C    0.212601
    13  N   -0.279307
    14  C    0.142812
    15  C   -0.024661
    16  C    0.047708
    17  C   -0.100560
    18  S    0.159171
    19  C   -0.149788
    20  C    0.090578
    21  C    0.028824
    22  C   -0.015714
    23  C    0.015359
    24  C    0.041751
    25  C    0.087782
    26  C    0.099919
    27  C   -0.003269
    28  N   -0.045157
    29  C    0.136770
    30  N   -0.218013
    31  H    0.059631
    32  H    0.059659
    33  H   -0.023719
    34  H   -0.028553
    35  H   -0.026679
    36  H   -0.031454
    37  H    0.036309
    38  H    0.048000
    39  H   -0.027502
    40  H    0.018459
    41  H    0.024489
    42  H   -0.027902
    43  H   -0.055198
    44  H   -0.031500
    45  H   -0.017035
    46  H   -0.005093
    47  H    0.004391
    48  H    0.092576
 Sum of Mulliken atomic charges =   0.00000

 Dipole moment (field-independent basis, Debye):
    X=             -6.3618    Y=              6.1492    Z=              2.3032  Tot=              9.1428
 Quadrupole moment (field-independent basis, Debye-Ang):
   XX=           -136.6245   YY=           -175.0406   ZZ=           -177.4116
   XY=              7.7939   XZ=              1.0501   YZ=            -10.7887

 Normal termination of Gaussian 09 at Sat Sep 10 10:13:16 2022.
