 Gaussian 09, Revision C.01,
 Gaussian 09:  EM64L-G09RevC.01 23-Sep-2011

 ---------------------------------------
 #p b3lyp/cc-pvdz pop=(chelpg,readradii)
 ---------------------------------------

 (Enter /opt/gaussian/l101.exe)
 ---------
 Mol24.log
 ---------
 Charge =  0 Multiplicity = 1

                         Standard orientation:
 ---------------------------------------------------------------------
 Center     Atomic      Atomic             Coordinates (Angstroms)
 Number     Number       Type             X           Y           Z
 ---------------------------------------------------------------------
      1          8           0        1.046300   -0.558921    2.119080
      2          6           0        1.433470    0.290209    1.325910
      3          6           0        2.906190    0.742889    1.388620
      4          7           0        3.730190    0.065029    0.403320
      5          7           0        4.367820    0.779369   -0.573660
      6          7           0        5.057240   -0.021681   -1.313720
      7          6           0        4.893230   -1.306801   -0.834840
      8          6           0        5.431480   -2.529511   -1.276230
      9          6           0        5.075030   -3.672221   -0.574260
     10          6           0        4.198660   -3.614841    0.540860
     11          6           0        3.654020   -2.419211    0.992230
     12          6           0        4.028240   -1.266371    0.279660
     13          7           0        0.629670    0.834389    0.349180
     14          6           0        1.066620    1.913489   -0.561810
     15          6           0        0.782330    3.318299   -0.037710
     16          6           0        1.145760    4.514849   -0.962790
     17          6           0       -0.143180    5.231799   -0.476200
     18          6           0       -0.677590    3.858779    0.013650
     19          6           0       -0.730880    0.376719    0.246370
     20          6           0       -1.606030    0.451350    1.337450
     21          6           0       -2.924070    0.017680    1.210270
     22          6           0       -3.411600   -0.499270   -0.004580
     23          6           0       -2.519770   -0.575300   -1.088900
     24          6           0       -1.196480   -0.152020   -0.963590
     25          6           0       -4.818540   -0.952470   -0.135040
     26          6           0       -5.882090   -0.269190    0.477410
     27          6           0       -7.183250   -0.742510    0.317080
     28          6           0       -7.389050   -1.887590   -0.456890
     29          7           0       -6.395240   -2.565160   -1.047690
     30          6           0       -5.152690   -2.101080   -0.879330
     31          1           0        3.052290    1.817829    1.229960
     32          1           0        3.251670    0.479939    2.398030
     33          1           0        6.100770   -2.562011   -2.137140
     34          1           0        5.470670   -4.641621   -0.884210
     35          1           0        3.940130   -4.542701    1.055880
     36          1           0        2.959160   -2.370731    1.831050
     37          1           0        2.136930    1.799109   -0.781040
     38          1           0        0.543380    1.768759   -1.518680
     39          1           0        1.263450    3.447119    0.947780
     40          1           0        2.113360    5.012489   -0.799310
     41          1           0        1.075470    4.231369   -2.026230
     42          1           0        0.063230    5.913599    0.363700
     43          1           0       -0.739120    5.772569   -1.226230
     44          1           0       -1.309380    3.372680   -0.747110
     45          1           0       -1.206120    3.821740    0.977670
     46          1           0       -1.246810    0.833850    2.292220
     47          1           0       -3.581870    0.061660    2.080760
     48          1           0       -2.866130   -0.958420   -2.050600
     49          1           0       -0.519430   -0.236781   -1.815860
     50          1           0       -5.691710    0.638070    1.055330
     51          1           0       -8.029080   -0.226210    0.775760
     52          1           0       -8.399540   -2.280890   -0.610240
     53          1           0       -4.358260   -2.689750   -1.350230
 ---------------------------------------------------------------------

 SCF Done:  E(RB3LYP) =  -1277.41227552     A.U. after   16 cycles

 The electronic state is 1-A.
 Alpha  occ. eigenvalues --  -19.12272 -14.42031 -14.39839 -14.38039 -14.35530
 Alpha  occ. eigenvalues --  -14.33029 -10.30421 -10.25599 -10.24113 -10.23653
 Alpha  occ. eigenvalues --  -10.23557 -10.22679 -10.22640 -10.21728 -10.21373
 Alpha  occ. eigenvalues --  -10.21339 -10.21319 -10.20612 -10.20513 -10.20490
 Alpha  occ. eigenvalues --  -10.20480 -10.20430 -10.20403 -10.20351 -10.20344
 Alpha  occ. eigenvalues --  -10.20344 -10.19921 -10.19453 -10.19324 -10.19306
 Alpha  occ. eigenvalues --   -1.10094  -1.05336  -0.95756  -0.94598  -0.93016
 Alpha  occ. eigenvalues --   -0.87213  -0.86861  -0.85601  -0.81860  -0.78702
 Alpha  occ. eigenvalues --   -0.78025  -0.77184  -0.76279  -0.75158  -0.74644
 Alpha  occ. eigenvalues --   -0.72652  -0.66755  -0.65811  -0.65323  -0.64714
 Alpha  occ. eigenvalues --   -0.63877  -0.62876  -0.61659  -0.61338  -0.59594
 Alpha  occ. eigenvalues --   -0.57058  -0.55804  -0.54041  -0.53536  -0.53074
 Alpha  occ. eigenvalues --   -0.51562  -0.50886  -0.49900  -0.49367  -0.48608
 Alpha  occ. eigenvalues --   -0.48129  -0.47605  -0.47019  -0.46207  -0.45432
 Alpha  occ. eigenvalues --   -0.45272  -0.44759  -0.44498  -0.43416  -0.42824
 Alpha  occ. eigenvalues --   -0.42500  -0.42076  -0.40821  -0.40650  -0.40104
 Alpha  occ. eigenvalues --   -0.39424  -0.39101  -0.38207  -0.37979  -0.37810
 Alpha  occ. eigenvalues --   -0.36791  -0.36708  -0.36146  -0.35895  -0.35287
 Alpha  occ. eigenvalues --   -0.33861  -0.33233  -0.32106  -0.31911  -0.31533
 Alpha  occ. eigenvalues --   -0.30468  -0.28606  -0.27730  -0.27108  -0.26531
 Alpha  occ. eigenvalues --   -0.26290  -0.25920  -0.25541  -0.23889  -0.23144
 Alpha virt. eigenvalues --   -0.05051  -0.04882  -0.03087  -0.02181  -0.00969
 Alpha virt. eigenvalues --    0.00188   0.01184   0.02973   0.04062   0.05673
 Alpha virt. eigenvalues --    0.05997   0.06400   0.06729   0.07532   0.08092

 Mulliken atomic charges:
              1
     1  O   -0.263496
     2  C    0.126836
     3  C    0.167711
     4  N   -0.245168
     5  N   -0.060155
     6  N   -0.180076
     7  C    0.009903
     8  C    0.043093
     9  C    0.039435
    10  C    0.043581
    11  C    0.030636
    12  C    0.183837
    13  N   -0.270574
    14  C    0.131432
    15  C   -0.110117
    16  C    0.039104
    17  C   -0.013417
    18  C    0.041001
    19  C    0.076855
    20  C    0.095506
    21  C    0.016732
    22  C    0.033804
    23  C    0.022786
    24  C    0.061168
    25  C   -0.044805
    26  C    0.075511
    27  C   -0.008296
    28  C    0.105412
    29  N   -0.173213
    30  C    0.099803
    31  H    0.042458
    32  H    0.044681
    33  H   -0.021197
    34  H   -0.024679
    35  H   -0.020356
    36  H   -0.007251
    37  H    0.043825
    38  H    0.010539
    39  H   -0.021042
    40  H    0.012997
    41  H    0.008098
    42  H    0.012633
    43  H    0.006069
    44  H    0.011757
    45  H    0.007119
    46  H   -0.029426
    47  H   -0.033589
    48  H   -0.031644
    49  H   -0.023200
    50  H   -0.027875
    51  H   -0.023230
    52  H   -0.003281
    53  H   -0.008232
 Sum of Mulliken atomic charges =   0.00000

 Dipole moment (field-independent basis, Debye):
    X=             -1.4791    Y=              2.4360    Z=              1.3157  Tot=              3.1390
 Quadrupole moment (field-independent basis, Debye-Ang):
   XX=           -181.4222   YY=           -169.8923   ZZ=           -174.8722
   XY=            -17.2850   XZ=             -0.9035   YZ=              4.4481

 Normal termination of Gaussian 09 at Sat Sep 10 10:49:47 2022.
