 Gaussian 09, Revision C.01,
 Gaussian 09:  EM64L-G09RevC.01 23-Sep-2011

 ---------------------------------------
 #p b3lyp/cc-pvdz pop=(chelpg,readradii)
 ---------------------------------------

 (Enter /opt/gaussian/l101.exe)
 ---------
 Mol29.log
 ---------
 Charge =  0 Multiplicity = 1

                         Standard orientation:
 ---------------------------------------------------------------------
 Center     Atomic      Atomic             Coordinates (Angstroms)
 Number     Number       Type             X           Y           Z
 ---------------------------------------------------------------------
      1          9           0        2.833261    4.889170    1.980290
      2          6           0        2.243851    4.004570    1.163240
      3          6           0        1.585931    2.904200    1.698740
      4          6           0        0.971411    1.980360    0.848160
      5          6           0        1.013561    2.151950   -0.541070
      6          6           0        1.685691    3.265670   -1.066400
      7          6           0        2.297531    4.191930   -0.222570
      8         17           0        3.136051    5.577340   -0.877200
      9          6           0        0.340921    1.185790   -1.511400
     10          7           0       -0.126780   -0.081530   -0.940410
     11          6           0        0.758500   -1.124420   -0.682600
     12          8           0        0.436640   -2.158450   -0.129010
     13          6           0        2.214690   -0.902650   -1.142850
     14          7           0        3.030530   -2.068970   -0.927920
     15          7           0        3.440480   -2.800600   -2.011050
     16          7           0        4.164150   -3.788280   -1.613310
     17          6           0        4.252530   -3.738310   -0.235040
     18          6           0        4.929770   -4.573891    0.670450
     19          6           0        4.842160   -4.259041    2.019150
     20          6           0        4.094890   -3.140350    2.468140
     21          6           0        3.416170   -2.306720    1.588170
     22          6           0        3.512710   -2.627440    0.224180
     23          6           0       -1.524190   -0.209820   -0.633500
     24          6           0       -2.247949    0.905510   -0.182220
     25          6           0       -3.616839    0.812061    0.069970
     26          6           0       -4.311800   -0.395029   -0.108470
     27          6           0       -3.573170   -1.506169   -0.555580
     28          6           0       -2.207760   -1.423520   -0.817740
     29          6           0       -5.767060   -0.492989    0.161710
     30          6           0       -6.374430    0.180281    1.234670
     31          6           0       -7.747550    0.050701    1.435620
     32          6           0       -8.479890   -0.754479    0.559160
     33          7           0       -7.930650   -1.404899   -0.475760
     34          6           0       -6.613400   -1.266109   -0.657370
     35          1           0        1.562631    2.784860    2.783000
     36          1           0        0.455511    1.120130    1.277180
     37          1           0        1.741961    3.425030   -2.145240
     38          1           0       -0.533209    1.673240   -1.966330
     39          1           0        1.026161    0.980770   -2.347780
     40          1           0        2.253520   -0.709470   -2.224210
     41          1           0        2.652840   -0.032750   -0.628040
     42          1           0        5.498610   -5.432491    0.310700
     43          1           0        5.353010   -4.882821    2.755370
     44          1           0        4.047060   -2.933280    3.539540
     45          1           0        2.828270   -1.460270    1.944320
     46          1           0       -1.749099    1.861730   -0.019940
     47          1           0       -4.153489    1.705441    0.395710
     48          1           0       -4.071560   -2.468599   -0.686160
     49          1           0       -1.669640   -2.307970   -1.148540
     50          1           0       -5.770769    0.781021    1.918940
     51          1           0       -8.243709    0.556471    2.266510
     52          1           0       -9.558870   -0.884629    0.693560
     53          1           0       -6.196370   -1.788669   -1.524780
 ---------------------------------------------------------------------

 SCF Done:  E(RB3LYP) =  -1911.30753299     A.U. after   15 cycles

 The electronic state is 1-A.
 Alpha  occ. eigenvalues -- -101.56684 -24.73482 -19.13618 -14.41509 -14.39782
 Alpha  occ. eigenvalues --  -14.39312 -14.35090 -14.33216 -10.31704 -10.30459
 Alpha  occ. eigenvalues --  -10.27824 -10.26776 -10.26440 -10.25266 -10.23802
 Alpha  occ. eigenvalues --  -10.23501 -10.23361 -10.23000 -10.22929 -10.22880
 Alpha  occ. eigenvalues --  -10.22823 -10.21590 -10.21553 -10.21536 -10.21385
 Alpha  occ. eigenvalues --  -10.21191 -10.21013 -10.20726 -10.20682 -10.20677
 Alpha  occ. eigenvalues --  -10.20519 -10.20340 -10.20140 -10.19722  -9.48482
 Alpha  occ. eigenvalues --   -7.24770  -7.23761  -7.23710  -1.25398  -1.09775
 Alpha  occ. eigenvalues --   -1.06829  -0.97655  -0.94793  -0.92901  -0.91961
 Alpha  occ. eigenvalues --   -0.87772  -0.86829  -0.86721  -0.82368  -0.80631
 Alpha  occ. eigenvalues --   -0.79075  -0.78057  -0.77252  -0.77072  -0.76501
 Alpha  occ. eigenvalues --   -0.75350  -0.74043  -0.72405  -0.66625  -0.65749
 Alpha  occ. eigenvalues --   -0.65190  -0.64656  -0.63452  -0.62724  -0.62077
 Alpha  occ. eigenvalues --   -0.61600  -0.59573  -0.57376  -0.57221  -0.54844
 Alpha  occ. eigenvalues --   -0.53889  -0.53351  -0.53025  -0.52723  -0.51994
 Alpha  occ. eigenvalues --   -0.50879  -0.49891  -0.49433  -0.49197  -0.48349
 Alpha  occ. eigenvalues --   -0.47735  -0.46977  -0.46892  -0.46260  -0.46095
 Alpha  occ. eigenvalues --   -0.45656  -0.45135  -0.44894  -0.44322  -0.44088
 Alpha  occ. eigenvalues --   -0.43614  -0.43375  -0.42380  -0.41948  -0.40942
 Alpha  occ. eigenvalues --   -0.40723  -0.40304  -0.40021  -0.39417  -0.38392
 Alpha  occ. eigenvalues --   -0.38145  -0.37894  -0.37032  -0.36981  -0.36096
 Alpha  occ. eigenvalues --   -0.35875  -0.35509  -0.33457  -0.33368  -0.31963
 Alpha  occ. eigenvalues --   -0.31496  -0.29330  -0.28615  -0.28290  -0.27645
 Alpha  occ. eigenvalues --   -0.26950  -0.26918  -0.26713  -0.26102  -0.25244
 Alpha  occ. eigenvalues --   -0.23828  -0.23322
 Alpha virt. eigenvalues --   -0.05469  -0.05089  -0.04501  -0.03909  -0.03336
 Alpha virt. eigenvalues --   -0.02553  -0.01283   0.00396   0.00499   0.01643
 Alpha virt. eigenvalues --    0.03163   0.03661   0.05077   0.05606   0.06456

 Mulliken atomic charges:
              1
     1  F   -0.138829
     2  C    0.222419
     3  C    0.038629
     4  C    0.035752
     5  C   -0.086093
     6  C    0.118995
     7  C   -0.182678
     8  Cl  -0.046292
     9  C    0.151971
    10  N   -0.283925
    11  C    0.129570
    12  O   -0.234056
    13  C    0.122933
    14  N   -0.228684
    15  N   -0.060438
    16  N   -0.180347
    17  C    0.011560
    18  C    0.045555
    19  C    0.038250
    20  C    0.040174
    21  C    0.030363
    22  C    0.213793
    23  C    0.102352
    24  C    0.018775
    25  C    0.017030
    26  C    0.034765
    27  C    0.016767
    28  C    0.075634
    29  C   -0.042356
    30  C    0.074304
    31  C   -0.007960
    32  C    0.105728
    33  N   -0.172583
    34  C    0.099172
    35  H    0.000821
    36  H   -0.009033
    37  H   -0.026033
    38  H    0.053917
    39  H    0.043266
    40  H    0.063260
    41  H    0.056937
    42  H   -0.020850
    43  H   -0.025839
    44  H   -0.024807
    45  H   -0.033365
    46  H   -0.023104
    47  H   -0.036235
    48  H   -0.027665
    49  H   -0.009388
    50  H   -0.027827
    51  H   -0.022787
    52  H   -0.002571
    53  H   -0.008950
 Sum of Mulliken atomic charges =   0.00000

 Dipole moment (field-independent basis, Debye):
    X=             -1.2232    Y=              4.3236    Z=              2.4495  Tot=              5.1176
 Quadrupole moment (field-independent basis, Debye-Ang):
   XX=           -217.2224   YY=           -220.2648   ZZ=           -194.9548
   XY=             -7.4489   XZ=             -0.8988   YZ=            -11.9140

 Normal termination of Gaussian 09 at Sat Sep 10 11:59:47 2022.
