 Gaussian 09, Revision C.01,
 Gaussian 09:  EM64L-G09RevC.01 23-Sep-2011

 ---------------------------------------
 #p b3lyp/cc-pvdz pop=(chelpg,readradii)
 ---------------------------------------

 (Enter /opt/gaussian/l101.exe)
 ---------
 Mol25.log
 ---------
 Charge =  0 Multiplicity = 1

                         Standard orientation:
 ---------------------------------------------------------------------
 Center     Atomic      Atomic             Coordinates (Angstroms)
 Number     Number       Type             X           Y           Z
 ---------------------------------------------------------------------
      1          8           0        1.290940   -1.218369   -0.310160
      2          6           0        1.392749   -0.047089   -0.629610
      3          6           0        2.779729    0.570301   -0.903640
      4          7           0        3.831479   -0.414719   -0.870430
      5          7           0        4.515009   -0.684949   -2.026370
      6          7           0        5.437670   -1.551109   -1.788900
      7          6           0        5.391900   -1.880799   -0.447890
      8          6           0        6.188720   -2.760709    0.305800
      9          6           0        5.909810   -2.874809    1.660260
     10          6           0        4.856770   -2.137839    2.260150
     11          6           0        4.055350   -1.269919    1.529580
     12          6           0        4.347110   -1.152079    0.160500
     13          7           0        0.306429    0.801120   -0.768830
     14          6           0        0.440569    2.237910   -1.071070
     15          6           0        0.562169    3.153340    0.155350
     16          6           0        0.829409    4.628711   -0.242820
     17          6           0        0.204648    5.501650    0.883890
     18          6           0       -0.403811    4.503330    1.896450
     19          6           0       -0.676201    3.240690    1.066480
     20          6           0       -1.014471    0.265390   -0.576750
     21          6           0       -1.990141    0.443680   -1.566460
     22          6           0       -3.282041   -0.050110   -1.387150
     23          6           0       -3.636761   -0.752780   -0.222300
     24          6           0       -2.641790   -0.941250    0.754960
     25          6           0       -1.352051   -0.442090    0.584890
     26          6           0       -5.009900   -1.280891   -0.032660
     27          6           0       -6.147141   -0.569411   -0.449520
     28          6           0       -7.411970   -1.117571   -0.243290
     29          6           0       -7.508030   -2.363831    0.381430
     30          7           0       -6.442540   -3.069131    0.785060
     31          6           0       -5.236310   -2.532391    0.573860
     32          1           0        2.826639    1.010521   -1.908800
     33          1           0        2.988519    1.371371   -0.174860
     34          1           0        6.992130   -3.324088   -0.171070
     35          1           0        6.504910   -3.547288    2.281420
     36          1           0        4.665420   -2.265099    3.328050
     37          1           0        3.231109   -0.728509    1.993800
     38          1           0        1.305359    2.387881   -1.732250
     39          1           0       -0.439301    2.541610   -1.657010
     40          1           0        1.408309    2.798141    0.772650
     41          1           0        1.904628    4.821811   -0.381510
     42          1           0        0.345428    4.847440   -1.210690
     43          1           0        0.945538    6.164531    1.356030
     44          1           0       -0.580632    6.153460    0.468750
     45          1           0        0.329529    4.269630    2.687870
     46          1           0       -1.303082    4.893980    2.396700
     47          1           0       -1.582871    3.377650    0.448430
     48          1           0       -0.833671    2.340880    1.679050
     49          1           0       -1.735411    0.952920   -2.498010
     50          1           0       -4.015211    0.080850   -2.185700
     51          1           0       -2.886660   -1.465520    1.680730
     52          1           0       -0.601181   -0.603840    1.356730
     53          1           0       -6.040491    0.415539   -0.909910
     54          1           0       -8.312951   -0.582701   -0.550790
     55          1           0       -8.486760   -2.818631    0.567290
     56          1           0       -4.383030   -3.142700    0.887940
 ---------------------------------------------------------------------

 SCF Done:  E(RB3LYP) =  -1316.75139977     A.U. after   15 cycles

 The electronic state is 1-A.
 Alpha  occ. eigenvalues --  -19.12347 -14.41077 -14.38894 -14.38205 -14.34675
 Alpha  occ. eigenvalues --  -14.33046 -10.30605 -10.25869 -10.24685 -10.24354
 Alpha  occ. eigenvalues --  -10.23078 -10.22688 -10.22669 -10.21421 -10.21378
 Alpha  occ. eigenvalues --  -10.21357 -10.20990 -10.20925 -10.20797 -10.20676
 Alpha  occ. eigenvalues --  -10.20534 -10.20456 -10.20372 -10.20298 -10.19990
 Alpha  occ. eigenvalues --  -10.19945 -10.19770 -10.19554 -10.19511 -10.19440
 Alpha  occ. eigenvalues --  -10.19367  -1.09312  -1.05601  -0.96074  -0.94620
 Alpha  occ. eigenvalues --   -0.92388  -0.87329  -0.86323  -0.85418  -0.81961
 Alpha  occ. eigenvalues --   -0.78806  -0.77719  -0.76821  -0.76709  -0.76047
 Alpha  occ. eigenvalues --   -0.74835  -0.73081  -0.72298  -0.68343  -0.65962
 Alpha  occ. eigenvalues --   -0.64790  -0.64333  -0.62416  -0.61831  -0.61607
 Alpha  occ. eigenvalues --   -0.59163  -0.58501  -0.57717  -0.56648  -0.53714
 Alpha  occ. eigenvalues --   -0.53033  -0.52671  -0.52290  -0.51576  -0.49988
 Alpha  occ. eigenvalues --   -0.49788  -0.48974  -0.48593  -0.47157  -0.46596
 Alpha  occ. eigenvalues --   -0.46554  -0.45813  -0.45252  -0.44796  -0.44481
 Alpha  occ. eigenvalues --   -0.43938  -0.43662  -0.43405  -0.42874  -0.41763
 Alpha  occ. eigenvalues --   -0.40870  -0.40613  -0.40325  -0.39476  -0.39104
 Alpha  occ. eigenvalues --   -0.38002  -0.37561  -0.36811  -0.36586  -0.36450
 Alpha  occ. eigenvalues --   -0.35792  -0.35502  -0.35431  -0.34992  -0.34372
 Alpha  occ. eigenvalues --   -0.33767  -0.33028  -0.32918  -0.31068  -0.30710
 Alpha  occ. eigenvalues --   -0.28755  -0.27664  -0.26770  -0.26500  -0.26403
 Alpha  occ. eigenvalues --   -0.25917  -0.24839  -0.23481  -0.23077
 Alpha virt. eigenvalues --   -0.05071  -0.04090  -0.03127  -0.02298  -0.00482
 Alpha virt. eigenvalues --    0.00568   0.01709   0.02623   0.03732   0.04467
 Alpha virt. eigenvalues --    0.04970   0.06024   0.06304   0.06727   0.07598

 Mulliken atomic charges:
              1
     1  O   -0.242956
     2  C    0.135058
     3  C    0.116777
     4  N   -0.228317
     5  N   -0.060746
     6  N   -0.181610
     7  C    0.010666
     8  C    0.044773
     9  C    0.037752
    10  C    0.039150
    11  C    0.033548
    12  C    0.213810
    13  N   -0.281784
    14  C    0.139391
    15  C   -0.112799
    16  C    0.032256
    17  C   -0.001051
    18  C    0.012754
    19  C    0.040427
    20  C    0.082725
    21  C    0.051825
    22  C    0.021816
    23  C    0.036298
    24  C    0.017570
    25  C    0.092362
    26  C   -0.045378
    27  C    0.074421
    28  C   -0.008264
    29  C    0.105654
    30  N   -0.172789
    31  C    0.099405
    32  H    0.063702
    33  H    0.050151
    34  H   -0.022323
    35  H   -0.027241
    36  H   -0.026018
    37  H   -0.033700
    38  H    0.021075
    39  H    0.015375
    40  H   -0.017042
    41  H    0.008117
    42  H    0.004163
    43  H    0.006246
    44  H    0.011661
    45  H    0.007483
    46  H    0.000906
    47  H    0.005217
    48  H    0.010220
    49  H   -0.025943
    50  H   -0.035074
    51  H   -0.030744
    52  H   -0.027261
    53  H   -0.029481
    54  H   -0.023604
    55  H   -0.003146
    56  H   -0.005481
 Sum of Mulliken atomic charges =   0.00000

 Dipole moment (field-independent basis, Debye):
    X=             -2.7471    Y=              6.3095    Z=              1.7611  Tot=              7.1034
 Quadrupole moment (field-independent basis, Debye-Ang):
   XX=           -188.6333   YY=           -183.2238   ZZ=           -181.3812
   XY=             -6.1769   XZ=             23.1348   YZ=             -7.9266

 Normal termination of Gaussian 09 at Sat Sep 10 11:03:51 2022.
