 Gaussian 09, Revision C.01,
 Gaussian 09:  EM64L-G09RevC.01 23-Sep-2011

 ---------------------------------------
 #p b3lyp/cc-pvdz pop=(chelpg,readradii)
 ---------------------------------------

 (Enter /opt/gaussian/l101.exe)
 ---------
 Mol38.log
 ---------
 Charge =  0 Multiplicity = 1

                         Standard orientation:
 ---------------------------------------------------------------------
 Center     Atomic      Atomic             Coordinates (Angstroms)
 Number     Number       Type             X           Y           Z
 ---------------------------------------------------------------------
      1          6           0        2.419909   -1.279951    3.588470
      2          8           0        1.644410   -0.695801    2.550140
      3          6           0        2.207400   -0.555761    1.315060
      4          6           0        3.532469   -0.880851    1.007860
      5          6           0        4.036250   -0.716462   -0.297060
      6          6           0        3.178120   -0.213291   -1.288700
      7          6           0        1.863560    0.131479   -0.976430
      8          6           0        1.364920   -0.020101    0.316570
      9          7           0        0.008020    0.327170    0.639800
     10          6           0       -0.219830    1.400510    1.620240
     11          6           0       -0.900319    2.647180    1.073240
     12          6           0       -1.830679    3.339001    1.860580
     13          6           0       -2.422088    4.516241    1.393470
     14          6           0       -2.100698    5.020201    0.131640
     15          6           0       -1.175078    4.323431   -0.648930
     16          6           0       -0.573919    3.149570   -0.194710
     17         17           0       -0.755618    4.939360   -2.243780
     18          6           0       -0.997770   -0.490390    0.152920
     19          8           0       -0.779071   -1.438120   -0.581800
     20          6           0       -2.440690   -0.109829    0.525190
     21          7           0       -3.334471   -1.245949    0.509200
     22          7           0       -3.913151   -1.629308    1.689800
     23          7           0       -4.735961   -2.597038    1.473340
     24          6           0       -4.730591   -2.878658    0.121310
     25          6           0       -5.461612   -3.826558   -0.617720
     26          6           0       -5.255232   -3.864388   -1.988780
     27          6           0       -4.334501   -2.988058   -2.619700
     28          6           0       -3.597041   -2.053188   -1.905570
     29          6           0       -3.819571   -2.010118   -0.518530
     30          6           0        5.430849   -1.070002   -0.599860
     31          6           0        6.288379   -1.977233    0.088670
     32          7           0        7.495929   -2.057553   -0.465270
     33          7           0        7.434859   -1.206413   -1.507060
     34          6           0        6.230540   -0.593583   -1.635740
     35          1           0        1.759369   -1.331111    4.463430
     36          1           0        2.750169   -2.298531    3.321440
     37          1           0        3.302960   -0.663831    3.833940
     38          1           0        4.193139   -1.257882    1.786560
     39          1           0        3.529780   -0.110501   -2.316300
     40          1           0        1.196450    0.505170   -1.754640
     41          1           0       -0.779700    1.019800    2.488440
     42          1           0        0.770761    1.676130    2.006490
     43          1           0       -2.098179    2.952541    2.847400
     44          1           0       -3.148758    5.044671    2.014250
     45          1           0       -2.560078    5.933521   -0.246820
     46          1           0        0.145801    2.630810   -0.827420
     47          1           0       -2.530480    0.315351    1.530570
     48          1           0       -2.787160    0.654451   -0.191150
     49          1           0       -6.161062   -4.497357   -0.116540
     50          1           0       -5.802742   -4.585117   -2.599710
     51          1           0       -4.192591   -3.061368   -3.700360
     52          1           0       -2.858481   -1.413489   -2.386380
     53          1           0        6.059429   -2.593393    0.956010
     54          1           0        6.039440    0.134007   -2.419620
     55          1           0        8.251499   -1.083153   -2.091670
 ---------------------------------------------------------------------

 SCF Done:  E(RB3LYP) =  -1904.51688905     A.U. after   15 cycles

 The electronic state is 1-A.
 Alpha  occ. eigenvalues -- -101.55168 -19.18826 -19.11779 -14.41403 -14.40632
 Alpha  occ. eigenvalues --  -14.38417 -14.37683 -14.35240 -14.34233 -10.29996
 Alpha  occ. eigenvalues --  -10.26308 -10.26164 -10.25612 -10.25048 -10.24879
 Alpha  occ. eigenvalues --  -10.23347 -10.23208 -10.22521 -10.22326 -10.21583
 Alpha  occ. eigenvalues --  -10.21480 -10.21462 -10.21425 -10.21160 -10.21131
 Alpha  occ. eigenvalues --  -10.20498 -10.20233 -10.19842 -10.19831 -10.19531
 Alpha  occ. eigenvalues --  -10.19389 -10.19308 -10.19253 -10.18869  -9.46983
 Alpha  occ. eigenvalues --   -7.23240  -7.22273  -7.22234  -1.08808  -1.08454
 Alpha  occ. eigenvalues --   -1.05528  -1.05001  -0.95538  -0.91795  -0.90241
 Alpha  occ. eigenvalues --   -0.86773  -0.85755  -0.85071  -0.82716  -0.80871
 Alpha  occ. eigenvalues --   -0.78812  -0.77400  -0.76588  -0.76375  -0.75347
 Alpha  occ. eigenvalues --   -0.74949  -0.73556  -0.71590  -0.70337  -0.65727
 Alpha  occ. eigenvalues --   -0.64223  -0.63000  -0.62502  -0.61715  -0.60967
 Alpha  occ. eigenvalues --   -0.60296  -0.59858  -0.58197  -0.56629  -0.55514
 Alpha  occ. eigenvalues --   -0.53589  -0.52773  -0.52482  -0.52049  -0.51475
 Alpha  occ. eigenvalues --   -0.50484  -0.50095  -0.48673  -0.48196  -0.47139
 Alpha  occ. eigenvalues --   -0.46894  -0.46094  -0.45993  -0.45722  -0.44936
 Alpha  occ. eigenvalues --   -0.44848  -0.44414  -0.44165  -0.43961  -0.43782
 Alpha  occ. eigenvalues --   -0.43385  -0.42763  -0.42417  -0.41250  -0.40881
 Alpha  occ. eigenvalues --   -0.40102  -0.39641  -0.39067  -0.38393  -0.37359
 Alpha  occ. eigenvalues --   -0.37213  -0.36902  -0.36580  -0.36046  -0.34984
 Alpha  occ. eigenvalues --   -0.34781  -0.34185  -0.33955  -0.32477  -0.32059
 Alpha  occ. eigenvalues --   -0.30643  -0.29920  -0.29364  -0.27802  -0.26812
 Alpha  occ. eigenvalues --   -0.26536  -0.26136  -0.26063  -0.25851  -0.24476
 Alpha  occ. eigenvalues --   -0.24325  -0.22732  -0.21979
 Alpha virt. eigenvalues --   -0.03651  -0.03525  -0.03351  -0.03042  -0.01059
 Alpha virt. eigenvalues --    0.00264   0.01191   0.01652   0.02186   0.04168
 Alpha virt. eigenvalues --    0.04481   0.04888   0.05369   0.06027   0.06988

 Mulliken atomic charges:
              1
     1  C    0.123313
     2  O   -0.290233
     3  C    0.164577
     4  C   -0.038691
     5  C    0.066166
     6  C   -0.001618
     7  C    0.099910
     8  C    0.051248
     9  N   -0.288871
    10  C    0.174127
    11  C   -0.097518
    12  C    0.027976
    13  C    0.048705
    14  C    0.116728
    15  C   -0.140950
    16  C    0.143599
    17  Cl  -0.086430
    18  C    0.146380
    19  O   -0.247815
    20  C    0.134543
    21  N   -0.229052
    22  N   -0.065838
    23  N   -0.184069
    24  C    0.010658
    25  C    0.042252
    26  C    0.037632
    27  C    0.037859
    28  C    0.043114
    29  C    0.204605
    30  C   -0.065317
    31  C    0.089921
    32  N   -0.170517
    33  N    0.003654
    34  C    0.094105
    35  H    0.040936
    36  H    0.037031
    37  H    0.033132
    38  H   -0.041544
    39  H   -0.047781
    40  H   -0.030792
    41  H    0.025645
    42  H    0.053479
    43  H   -0.035364
    44  H   -0.014098
    45  H   -0.017535
    46  H   -0.038611
    47  H    0.042837
    48  H    0.062959
    49  H   -0.025294
    50  H   -0.029381
    51  H   -0.026665
    52  H   -0.028395
    53  H   -0.016855
    54  H    0.000005
    55  H    0.102138
 Sum of Mulliken atomic charges =   0.00000

 Dipole moment (field-independent basis, Debye):
    X=              3.9814    Y=              4.0985    Z=             -0.2943  Tot=              5.7216
 Quadrupole moment (field-independent basis, Debye-Ang):
   XX=           -197.1083   YY=           -208.7542   ZZ=           -183.6113
   XY=             -5.0879   XZ=             -0.8242   YZ=              8.2211

 Normal termination of Gaussian 09 at Sat Sep 10 14:01:29 2022.
