 Gaussian 09, Revision C.01,
 Gaussian 09:  EM64L-G09RevC.01 23-Sep-2011

 ---------------------------------------
 #p b3lyp/cc-pvdz pop=(chelpg,readradii)
 ---------------------------------------

 (Enter /opt/gaussian/l101.exe)
 ---------
 Mol32.log
 ---------
 Charge =  0 Multiplicity = 1

                         Standard orientation:
 ---------------------------------------------------------------------
 Center     Atomic      Atomic             Coordinates (Angstroms)
 Number     Number       Type             X           Y           Z
 ---------------------------------------------------------------------
      1         17           0       -4.888991    3.989218   -0.958520
      2          6           0       -3.249571    3.528208   -0.531720
      3          6           0       -2.438572    4.450788    0.129010
      4          6           0       -1.140882    4.057299    0.465290
      5          6           0       -0.653711    2.788039    0.155320
      6          6           0       -1.485121    1.875899   -0.510910
      7          6           0       -2.792731    2.247248   -0.852370
      8          6           0       -0.975160    0.499009   -0.914790
      9          7           0       -0.215710   -0.213051    0.131810
     10          6           0       -0.834350   -0.860591    1.185430
     11          8           0       -0.219300   -1.440601    2.068210
     12          6           0       -2.375150   -0.877192    1.213340
     13          7           0       -2.928560   -1.892662    0.334460
     14          7           0       -3.688000   -1.536092   -0.747500
     15          7           0       -4.091180   -2.597272   -1.360620
     16          6           0       -3.605399   -3.700672   -0.687150
     17          6           0       -3.764399   -5.075982   -0.938570
     18          6           0       -3.142739   -5.957922   -0.066340
     19          6           0       -2.372129   -5.495482    1.032530
     20          6           0       -2.200419   -4.142812    1.297840
     21          6           0       -2.842419   -3.257492    0.414310
     22          6           0        1.218940   -0.257611    0.033470
     23          6           0        1.825100   -0.693750   -1.152260
     24          6           0        3.214430   -0.716550   -1.269680
     25          6           0        4.041440   -0.322080   -0.203210
     26          6           0        3.418460    0.097010    0.986990
     27          6           0        2.030460    0.129960    1.108380
     28          6           0        5.519320   -0.352849   -0.327810
     29          6           0        6.175200    0.006791   -1.516750
     30          6           0        7.566840   -0.044329   -1.573400
     31          6           0        8.269020   -0.450029   -0.435340
     32          7           0        7.672050   -0.804389    0.710870
     33          6           0        6.336490   -0.755239    0.747020
     34         17           0       -0.098622    5.200379    1.298310
     35          1           0       -2.806132    5.444648    0.378330
     36          1           0        0.365709    2.518479    0.430020
     37          1           0       -3.456191    1.540448   -1.353040
     38          1           0       -1.815630   -0.115071   -1.262490
     39          1           0       -0.297831    0.613739   -1.771680
     40          1           0       -2.649870   -1.105102    2.252270
     41          1           0       -2.832070    0.076438    0.924690
     42          1           0       -4.355429   -5.419512   -1.788710
     43          1           0       -3.240588   -7.033682   -0.225510
     44          1           0       -1.893659   -6.228451    1.685760
     45          1           0       -1.586819   -3.782011    2.123780
     46          1           0        1.209610   -1.040901   -1.984630
     47          1           0        3.661830   -1.084240   -2.195310
     48          1           0        4.029260    0.430940    1.827810
     49          1           0        1.573680    0.457800    2.041180
     50          1           0        5.599610    0.346021   -2.381060
     51          1           0        8.102640    0.237171   -2.482220
     52          1           0        9.363240   -0.492708   -0.443040
     53          1           0        5.874600   -1.076109    1.686720
 ---------------------------------------------------------------------

 SCF Done:  E(RB3LYP) =  -2271.69056575     A.U. after   16 cycles

 The electronic state is 1-A.
 Alpha  occ. eigenvalues -- -101.55794-101.55677 -19.13253 -14.42648 -14.40521
 Alpha  occ. eigenvalues --  -14.39155 -14.36180 -14.33260 -10.31292 -10.27247
 Alpha  occ. eigenvalues --  -10.27187 -10.26068 -10.25542 -10.24892 -10.24226
 Alpha  occ. eigenvalues --  -10.23323 -10.22934 -10.22879 -10.22491 -10.22286
 Alpha  occ. eigenvalues --  -10.22035 -10.21996 -10.21779 -10.21646 -10.21601
 Alpha  occ. eigenvalues --  -10.21249 -10.21082 -10.21026 -10.20890 -10.20857
 Alpha  occ. eigenvalues --  -10.20850 -10.20841 -10.20725 -10.20403  -9.47611
 Alpha  occ. eigenvalues --   -9.47493  -7.23877  -7.23761  -7.22897  -7.22855
 Alpha  occ. eigenvalues --   -7.22780  -7.22735  -1.10705  -1.06314  -0.96894
 Alpha  occ. eigenvalues --   -0.94842  -0.93639  -0.92023  -0.88372  -0.87750
 Alpha  occ. eigenvalues --   -0.87395  -0.84651  -0.82228  -0.79269  -0.78662
 Alpha  occ. eigenvalues --   -0.78395  -0.77663  -0.76792  -0.75619  -0.75050
 Alpha  occ. eigenvalues --   -0.74150  -0.72068  -0.66414  -0.65835  -0.64740
 Alpha  occ. eigenvalues --   -0.63452  -0.63044  -0.62257  -0.61828  -0.61225
 Alpha  occ. eigenvalues --   -0.60146  -0.57537  -0.54704  -0.54179  -0.53760
 Alpha  occ. eigenvalues --   -0.53564  -0.52304  -0.51615  -0.50680  -0.49956
 Alpha  occ. eigenvalues --   -0.49698  -0.48231  -0.47971  -0.47537  -0.47117
 Alpha  occ. eigenvalues --   -0.46038  -0.45860  -0.45187  -0.45152  -0.45061
 Alpha  occ. eigenvalues --   -0.44762  -0.43915  -0.43649  -0.43180  -0.42896
 Alpha  occ. eigenvalues --   -0.41686  -0.41084  -0.40872  -0.40634  -0.39637
 Alpha  occ. eigenvalues --   -0.39313  -0.38868  -0.38445  -0.38124  -0.37343
 Alpha  occ. eigenvalues --   -0.37280  -0.36990  -0.36508  -0.36295  -0.34461
 Alpha  occ. eigenvalues --   -0.33097  -0.32995  -0.32610  -0.32220  -0.31252
 Alpha  occ. eigenvalues --   -0.29147  -0.28515  -0.27828  -0.27576  -0.27033
 Alpha  occ. eigenvalues --   -0.26915  -0.26237  -0.26147  -0.26071  -0.24427
 Alpha  occ. eigenvalues --   -0.23698
 Alpha virt. eigenvalues --   -0.05627  -0.05465  -0.04450  -0.03912  -0.03341
 Alpha virt. eigenvalues --   -0.02654  -0.01736  -0.00308   0.00065   0.01051
 Alpha virt. eigenvalues --    0.02344   0.04536   0.05304   0.06108   0.06389

 Mulliken atomic charges:
              1
     1  Cl  -0.067300
     2  C   -0.145808
     3  C    0.215227
     4  C   -0.149225
     5  C    0.143019
     6  C   -0.101791
     7  C    0.126306
     8  C    0.154936
     9  N   -0.280217
    10  C    0.134725
    11  O   -0.253955
    12  C    0.166091
    13  N   -0.242649
    14  N   -0.070245
    15  N   -0.175547
    16  C    0.010303
    17  C    0.044036
    18  C    0.039982
    19  C    0.044212
    20  C    0.030169
    21  C    0.184822
    22  C    0.073326
    23  C    0.049086
    24  C    0.023280
    25  C    0.036216
    26  C    0.018754
    27  C    0.088331
    28  C   -0.045434
    29  C    0.074842
    30  C   -0.007783
    31  C    0.106181
    32  N   -0.172498
    33  C    0.099858
    34  Cl  -0.071791
    35  H   -0.008489
    36  H   -0.025684
    37  H   -0.008167
    38  H    0.037612
    39  H    0.052150
    40  H    0.046989
    41  H    0.056340
    42  H   -0.019299
    43  H   -0.022734
    44  H   -0.018369
    45  H   -0.007278
    46  H   -0.022203
    47  H   -0.032496
    48  H   -0.027659
    49  H   -0.021951
    50  H   -0.027518
    51  H   -0.022202
    52  H   -0.002144
    53  H   -0.006358
 Sum of Mulliken atomic charges =   0.00000

 Dipole moment (field-independent basis, Debye):
    X=              0.9606    Y=             -0.2661    Z=             -1.5139  Tot=              1.8126
 Quadrupole moment (field-independent basis, Debye-Ang):
   XX=           -224.8743   YY=           -204.0757   ZZ=           -205.8889
   XY=              7.5201   XZ=            -21.6472   YZ=              0.9029

 Normal termination of Gaussian 09 at Sat Sep 10 12:31:49 2022.
