 Gaussian 09, Revision C.01,
 Gaussian 09:  EM64L-G09RevC.01 23-Sep-2011

 ---------------------------------------
 #p b3lyp/cc-pvdz pop=(chelpg,readradii)
 ---------------------------------------

 (Enter /opt/gaussian/l101.exe)
 ---------
 Mol36.log
 ---------
 Charge =  0 Multiplicity = 1

                         Standard orientation:
 ---------------------------------------------------------------------
 Center     Atomic      Atomic             Coordinates (Angstroms)
 Number     Number       Type             X           Y           Z
 ---------------------------------------------------------------------
      1         17           0       -2.529420    6.010250   -0.369210
      2          6           0       -1.816919    4.508770    0.204830
      3          6           0       -1.798179    4.237720    1.575780
      4          6           0       -1.231769    3.038820    2.010190
      5          6           0       -0.691929    2.127600    1.095650
      6          6           0       -0.713459    2.407790   -0.276380
      7          6           0       -1.286289    3.609880   -0.719440
      8          6           0       -0.118239    1.465490   -1.317900
      9          7           0        0.242901    0.124010   -0.849470
     10          6           0       -0.721979   -0.859360   -0.663190
     11          8           0       -0.482909   -1.957950   -0.197850
     12          6           0       -2.157959   -0.483720   -1.085650
     13          7           0       -3.066009   -1.593260   -0.950450
     14          7           0       -3.554009   -2.194840   -2.079450
     15          7           0       -4.351549   -3.149991   -1.747330
     16          6           0       -4.411889   -3.208791   -0.368030
     17          6           0       -5.140489   -4.059101    0.482440
     18          6           0       -5.003139   -3.866311    1.849810
     19          6           0       -4.157219   -2.853850    2.370620
     20          6           0       -3.426729   -2.008070    1.545640
     21          6           0       -3.573879   -2.204710    0.162750
     22          6           0        1.627121   -0.145180   -0.570190
     23          6           0        2.438391    0.853810   -0.009430
     24          6           0        3.793821    0.622920    0.224140
     25          6           0        4.392511   -0.608760   -0.090660
     26          6           0        3.565561   -1.600970   -0.650670
     27          6           0        2.211121   -1.382280   -0.887910
     28          6           0        5.819941   -0.858110    0.152410
     29          6           0        6.850831    0.072001    0.261520
     30          7           0        7.987811   -0.636019    0.484920
     31          7           0        7.790151   -1.966999    0.535440
     32          6           0        6.482221   -2.107909    0.332560
     33          1           0       -2.221970    4.952540    2.281290
     34          1           0       -1.210209    2.811520    3.078150
     35          1           0       -0.250659    1.196120    1.453730
     36          1           0       -1.322159    3.849850   -1.784120
     37          1           0       -0.813429    1.384930   -2.167690
     38          1           0        0.795761    1.914750   -1.732010
     39          1           0       -2.519489    0.375460   -0.498560
     40          1           0       -2.188969   -0.203150   -2.147930
     41          1           0       -5.785209   -4.835331    0.067670
     42          1           0       -5.551189   -4.505751    2.544750
     43          1           0       -4.073139   -2.742100    3.453930
     44          1           0       -2.762339   -1.246490    1.954680
     45          1           0        2.013851    1.818830    0.270820
     46          1           0        4.388251    1.413420    0.687200
     47          1           0        3.994831   -2.564800   -0.931180
     48          1           0        1.605971   -2.175460   -1.320110
     49          1           0        6.859861    1.155071    0.175050
     50          1           0        6.045481   -3.104599    0.341890
     51          1           0        8.924361   -0.271819    0.602840
 ---------------------------------------------------------------------

 SCF Done:  E(RB3LYP) =  -1789.98981581     A.U. after   15 cycles

 The electronic state is 1-A.
 Alpha  occ. eigenvalues -- -101.55710 -19.12928 -14.41226 -14.41127 -14.39051
 Alpha  occ. eigenvalues --  -14.38944 -14.35042 -14.34723 -10.31037 -10.26966
 Alpha  occ. eigenvalues --  -10.26121 -10.25912 -10.24291 -10.23247 -10.23186
 Alpha  occ. eigenvalues --  -10.23123 -10.22241 -10.22200 -10.22045 -10.21719
 Alpha  occ. eigenvalues --  -10.21037 -10.20978 -10.20881 -10.20409 -10.20367
 Alpha  occ. eigenvalues --  -10.20130 -10.20006 -10.19821 -10.19802 -10.19752
 Alpha  occ. eigenvalues --  -10.19666 -10.19412  -9.47526  -7.23787  -7.22815
 Alpha  occ. eigenvalues --   -7.22774  -1.09394  -1.06142  -1.05336  -0.96928
 Alpha  occ. eigenvalues --   -0.92481  -0.90911  -0.86908  -0.86377  -0.85652
 Alpha  occ. eigenvalues --   -0.82524  -0.80889  -0.79618  -0.77957  -0.77008
 Alpha  occ. eigenvalues --   -0.76043  -0.75631  -0.75159  -0.73829  -0.71911
 Alpha  occ. eigenvalues --   -0.66068  -0.64843  -0.63548  -0.62952  -0.62333
 Alpha  occ. eigenvalues --   -0.61969  -0.60285  -0.60232  -0.58415  -0.56635
 Alpha  occ. eigenvalues --   -0.55222  -0.54331  -0.53071  -0.52677  -0.52382
 Alpha  occ. eigenvalues --   -0.52017  -0.49532  -0.48686  -0.47719  -0.47563
 Alpha  occ. eigenvalues --   -0.46784  -0.46650  -0.46181  -0.45647  -0.45010
 Alpha  occ. eigenvalues --   -0.44778  -0.44729  -0.44512  -0.44260  -0.43605
 Alpha  occ. eigenvalues --   -0.43305  -0.42772  -0.41775  -0.40865  -0.40666
 Alpha  occ. eigenvalues --   -0.39881  -0.38656  -0.37927  -0.37882  -0.37781
 Alpha  occ. eigenvalues --   -0.37526  -0.36648  -0.35658  -0.35479  -0.34643
 Alpha  occ. eigenvalues --   -0.33014  -0.32656  -0.31452  -0.31108  -0.29537
 Alpha  occ. eigenvalues --   -0.28214  -0.27633  -0.27214  -0.26625  -0.26480
 Alpha  occ. eigenvalues --   -0.26271  -0.26124  -0.24893  -0.23442  -0.21802
 Alpha virt. eigenvalues --   -0.04330  -0.04134  -0.03677  -0.03599  -0.01888
 Alpha virt. eigenvalues --    0.00276   0.00842   0.01374   0.01745   0.03555
 Alpha virt. eigenvalues --    0.04085   0.04700   0.05543   0.06097   0.06931

 Mulliken atomic charges:
              1
     1  Cl  -0.078726
     2  C   -0.143180
     3  C    0.118538
     4  C    0.052348
     5  C    0.022675
     6  C   -0.087832
     7  C    0.118671
     8  C    0.152786
     9  N   -0.282581
    10  C    0.127722
    11  O   -0.236486
    12  C    0.122767
    13  N   -0.227943
    14  N   -0.060848
    15  N   -0.181767
    16  C    0.011194
    17  C    0.044818
    18  C    0.037895
    19  C    0.039559
    20  C    0.031646
    21  C    0.213488
    22  C    0.096373
    23  C    0.024817
    24  C   -0.002127
    25  C    0.063494
    26  C   -0.001719
    27  C    0.081063
    28  C   -0.060951
    29  C    0.089586
    30  N    0.003223
    31  N   -0.170716
    32  C    0.091115
    33  H   -0.015592
    34  H   -0.012677
    35  H   -0.013938
    36  H   -0.032260
    37  H    0.041853
    38  H    0.052868
    39  H    0.057480
    40  H    0.061890
    41  H   -0.022047
    42  H   -0.027037
    43  H   -0.025837
    44  H   -0.032213
    45  H   -0.027195
    46  H   -0.047805
    47  H   -0.036232
    48  H   -0.014852
    49  H   -0.003071
    50  H   -0.013451
    51  H    0.101214
 Sum of Mulliken atomic charges =   0.00000

 Dipole moment (field-independent basis, Debye):
    X=              3.2482    Y=              5.5886    Z=              2.3211  Tot=              6.8681
 Quadrupole moment (field-independent basis, Debye-Ang):
   XX=           -182.9513   YY=           -202.7772   ZZ=           -187.4383
   XY=             13.0917   XZ=            -13.8328   YZ=             -5.2218

 Normal termination of Gaussian 09 at Sat Sep 10 13:32:01 2022.
