 Gaussian 09, Revision C.01,
 Gaussian 09:  EM64L-G09RevC.01 23-Sep-2011

 ---------------------------------------
 #p b3lyp/cc-pvdz pop=(chelpg,readradii)
 ---------------------------------------

 (Enter /opt/gaussian/l101.exe)
 ---------
 Mol33.log
 ---------
 Charge =  0 Multiplicity = 1

                         Standard orientation:
 ---------------------------------------------------------------------
 Center     Atomic      Atomic             Coordinates (Angstroms)
 Number     Number       Type             X           Y           Z
 ---------------------------------------------------------------------
      1          6           0       -4.351848    4.548851   -1.198591
      2          6           0       -3.018979    4.010350   -0.736681
      3          6           0       -2.122058    4.820240   -0.029791
      4          6           0       -0.890608    4.299450    0.376239
      5          6           0       -0.521319    2.986600    0.094779
      6          6           0       -1.413959    2.167380   -0.613281
      7          6           0       -2.651479    2.683030   -1.015851
      8          6           0       -1.037610    0.741810   -0.991141
      9          7           0       -0.375510   -0.032620    0.079379
     10          6           0       -1.076750   -0.581950    1.135309
     11          8           0       -0.544980   -1.209010    2.040659
     12          6           0       -2.609600   -0.423510    1.137649
     13          7           0       -3.261950   -1.403369    0.285619
     14          7           0       -3.980990   -1.002989   -0.807951
     15          7           0       -4.491761   -2.035019   -1.390691
     16          6           0       -4.121691   -3.161969   -0.683681
     17          6           0       -4.420141   -4.520709   -0.895291
     18          6           0       -3.892022   -5.435499    0.004339
     19          6           0       -3.078832   -5.022060    1.092039
     20          6           0       -2.769861   -3.686800    1.318249
     21          6           0       -3.317341   -2.766879    0.406599
     22          6           0        1.045760   -0.238371    0.004769
     23          6           0        1.617110   -0.752221   -1.167141
     24          6           0        2.997000   -0.929482   -1.263391
     25          6           0        3.847430   -0.616242   -0.188551
     26          6           0        3.257750   -0.117932    0.987999
     27          6           0        1.880390    0.069179    1.088099
     28          6           0        5.314700   -0.809242   -0.290531
     29          6           0        6.022970   -0.533393   -1.471781
     30          6           0        7.401640   -0.735293   -1.506581
     31          6           0        8.039120   -1.204413   -0.354911
     32          7           0        7.390620   -1.482153    0.784429
     33          6           0        6.067800   -1.288423    0.799529
     34         17           0        0.222872    5.332709    1.267569
     35          1           0       -5.168419    3.847081   -0.965791
     36          1           0       -4.584468    5.514761   -0.727271
     37          1           0       -4.357708    4.699451   -2.291761
     38          1           0       -2.377608    5.852810    0.212229
     39          1           0        0.447551    2.611769    0.423759
     40          1           0       -3.351399    2.032621   -1.547971
     41          1           0       -1.928400    0.210020   -1.350201
     42          1           0       -0.333500    0.773140   -1.833481
     43          1           0       -2.921990   -0.580980    2.179099
     44          1           0       -2.951420    0.563560    0.805759
     45          1           0       -5.042652   -4.827159   -1.737141
     46          1           0       -4.098982   -6.499919   -0.123921
     47          1           0       -2.678052   -5.780530    1.768089
     48          1           0       -2.122771   -3.365360    2.134809
     49          1           0        0.978600   -1.038501   -2.005221
     50          1           0        3.413960   -1.354672   -2.178571
     51          1           0        3.889980    0.156518    1.834559
     52          1           0        1.449980    0.456519    2.010439
     53          1           0        5.499670   -0.141732   -2.347141
     54          1           0        7.978000   -0.521323   -2.409001
     55          1           0        9.122330   -1.365094   -0.345361
     56          1           0        5.560040   -1.548922    1.734209
 ---------------------------------------------------------------------

 SCF Done:  E(RB3LYP) =  -1851.39317056     A.U. after   16 cycles

 The electronic state is 1-A.
 Alpha  occ. eigenvalues -- -101.54746 -19.12823 -14.42365 -14.40231 -14.38675
 Alpha  occ. eigenvalues --  -14.35907 -14.33036 -10.30859 -10.25808 -10.25652
 Alpha  occ. eigenvalues --  -10.24842 -10.24514 -10.23956 -10.22691 -10.22656
 Alpha  occ. eigenvalues --  -10.22041 -10.21947 -10.21829 -10.21434 -10.21399
 Alpha  occ. eigenvalues --  -10.21352 -10.20879 -10.20813 -10.20767 -10.20744
 Alpha  occ. eigenvalues --  -10.20739 -10.20632 -10.20620 -10.20527 -10.20506
 Alpha  occ. eigenvalues --  -10.20467 -10.20262 -10.20191 -10.20060  -9.46560
 Alpha  occ. eigenvalues --   -7.22816  -7.21850  -7.21811  -1.10418  -1.05869
 Alpha  occ. eigenvalues --   -0.96394  -0.94610  -0.93320  -0.89892  -0.87379
 Alpha  occ. eigenvalues --   -0.87138  -0.84978  -0.82037  -0.80039  -0.78768
 Alpha  occ. eigenvalues --   -0.78245  -0.77402  -0.76516  -0.75738  -0.75315
 Alpha  occ. eigenvalues --   -0.73636  -0.71058  -0.70366  -0.66069  -0.65578
 Alpha  occ. eigenvalues --   -0.64416  -0.63186  -0.62286  -0.61788  -0.60343
 Alpha  occ. eigenvalues --   -0.59903  -0.59819  -0.57048  -0.54297  -0.53686
 Alpha  occ. eigenvalues --   -0.53366  -0.52483  -0.51552  -0.51101  -0.49778
 Alpha  occ. eigenvalues --   -0.49610  -0.49285  -0.47802  -0.47319  -0.47187
 Alpha  occ. eigenvalues --   -0.46129  -0.45585  -0.45540  -0.44877  -0.44747
 Alpha  occ. eigenvalues --   -0.43925  -0.43532  -0.43411  -0.42927  -0.42662
 Alpha  occ. eigenvalues --   -0.42438  -0.42306  -0.40782  -0.40493  -0.40339
 Alpha  occ. eigenvalues --   -0.39995  -0.39100  -0.39029  -0.38245  -0.38143
 Alpha  occ. eigenvalues --   -0.37307  -0.36812  -0.36560  -0.36449  -0.36169
 Alpha  occ. eigenvalues --   -0.35951  -0.34158  -0.33149  -0.32314  -0.31646
 Alpha  occ. eigenvalues --   -0.30917  -0.28871  -0.28172  -0.27513  -0.27163
 Alpha  occ. eigenvalues --   -0.26555  -0.26238  -0.25925  -0.25817  -0.25287
 Alpha  occ. eigenvalues --   -0.24166  -0.23315
 Alpha virt. eigenvalues --   -0.05322  -0.05145  -0.03276  -0.03031  -0.02760
 Alpha virt. eigenvalues --   -0.02154  -0.01296  -0.00061   0.01249   0.02608
 Alpha virt. eigenvalues --    0.02724   0.05603   0.06126   0.06469   0.06652

 Mulliken atomic charges:
              1
     1  C    0.056601
     2  C   -0.095462
     3  C    0.127570
     4  C   -0.144112
     5  C    0.132013
     6  C   -0.095970
     7  C    0.024597
     8  C    0.155987
     9  N   -0.278847
    10  C    0.134140
    11  O   -0.256964
    12  C    0.168019
    13  N   -0.242884
    14  N   -0.069838
    15  N   -0.178096
    16  C    0.009895
    17  C    0.043163
    18  C    0.039844
    19  C    0.043909
    20  C    0.030867
    21  C    0.183385
    22  C    0.075257
    23  C    0.048648
    24  C    0.022882
    25  C    0.035941
    26  C    0.018286
    27  C    0.089015
    28  C   -0.045385
    29  C    0.075030
    30  C   -0.007990
    31  C    0.105677
    32  N   -0.172833
    33  C    0.099571
    34  Cl  -0.088104
    35  H    0.042443
    36  H    0.020599
    37  H    0.048394
    38  H   -0.034149
    39  H   -0.033067
    40  H   -0.037035
    41  H    0.035300
    42  H    0.049328
    43  H    0.045253
    44  H    0.056528
    45  H   -0.020660
    46  H   -0.023711
    47  H   -0.019160
    48  H   -0.006975
    49  H   -0.023048
    50  H   -0.033805
    51  H   -0.028474
    52  H   -0.021265
    53  H   -0.027773
    54  H   -0.022946
    55  H   -0.002960
    56  H   -0.006631
 Sum of Mulliken atomic charges =   0.00000

 Dipole moment (field-independent basis, Debye):
    X=             -0.9642    Y=              0.6935    Z=             -2.2415  Tot=              2.5367
 Quadrupole moment (field-independent basis, Debye-Ang):
   XX=           -208.7210   YY=           -197.2583   ZZ=           -200.7729
   XY=             -1.5263   XZ=            -18.3225   YZ=             -1.2412

 Normal termination of Gaussian 09 at Sat Sep 10 12:48:57 2022.
