 Gaussian 09, Revision C.01,
 Gaussian 09:  EM64L-G09RevC.01 23-Sep-2011

 ---------------------------------------
 #p b3lyp/cc-pvdz pop=(chelpg,readradii)
 ---------------------------------------

 (Enter /opt/gaussian/l101.exe)
 ---------
 Mol40.log
 ---------
 Charge =  0 Multiplicity = 1

                         Standard orientation:
 ---------------------------------------------------------------------
 Center     Atomic      Atomic             Coordinates (Angstroms)
 Number     Number       Type             X           Y           Z
 ---------------------------------------------------------------------
      1         17           0       -3.377242    5.241621   -0.283381
      2          6           0       -2.119711    4.121971    0.227599
      3          6           0       -1.689651    4.129481    1.554839
      4          6           0       -0.692071    3.228531    1.938249
      5          6           0       -0.134961    2.339561    1.016279
      6          6           0       -0.576081    2.335091   -0.315351
      7          6           0       -1.578191    3.235151   -0.705271
      8          6           0        0.041289    1.418381   -1.358821
      9          7           0        0.363429    0.053341   -0.896581
     10          6           0       -0.642770   -0.887819   -0.705601
     11          8           0       -0.458250   -2.002749   -0.251371
     12          6           0       -2.064421   -0.445759   -1.109791
     13          7           0       -3.019930   -1.510589   -0.949641
     14          7           0       -3.503030   -2.149140   -2.059781
     15          7           0       -4.334660   -3.065020   -1.701051
     16          6           0       -4.421420   -3.060270   -0.321751
     17          6           0       -5.189430   -3.849900    0.552049
     18          6           0       -5.069460   -3.599910    1.911949
     19          6           0       -4.203600   -2.589400    2.402859
     20          6           0       -3.434980   -1.802099    1.554679
     21          6           0       -3.564080   -2.057620    0.179679
     22          6           0        1.736389   -0.237189   -0.611041
     23          6           0        2.257200   -1.544308   -0.545771
     24          6           0        3.617060   -1.694508   -0.304391
     25          6           0        4.450189   -0.576368   -0.116091
     26          6           0        3.815199    0.671902   -0.201181
     27          7           0        2.511469    0.839012   -0.441251
     28          6           0        5.887690   -0.691778    0.151829
     29          6           0        6.574310   -1.774178    0.696799
     30          7           0        7.881180   -1.411887    0.752689
     31          7           0        8.115799   -0.172137    0.282909
     32          6           0        6.914459    0.270262   -0.080031
     33          1           0       -2.129141    4.825431    2.269709
     34          1           0       -0.342251    3.226411    2.972959
     35          1           0        0.656019    1.656351    1.325129
     36          1           0       -1.942141    3.251361   -1.734501
     37          1           0       -0.616191    1.356181   -2.237231
     38          1           0        0.991119    1.854751   -1.689331
     39          1           0       -2.375711    0.433121   -0.524521
     40          1           0       -2.094831   -0.170219   -2.173331
     41          1           0       -5.850220   -4.624700    0.160499
     42          1           0       -5.648420   -4.191110    2.624359
     43          1           0       -4.136250   -2.430310    3.481419
     44          1           0       -2.759190   -1.038519    1.941459
     45          1           0        1.613550   -2.406869   -0.679711
     46          1           0        4.039280   -2.701808   -0.281161
     47          1           0        4.386469    1.593192   -0.051921
     48          1           0        6.232110   -2.739788    1.059029
     49          1           0        6.821729    1.262062   -0.518121
     50          1           0        8.655640   -1.961507    1.102249
 ---------------------------------------------------------------------

 SCF Done:  E(RB3LYP) =  -1806.03960155     A.U. after   15 cycles

 The electronic state is 1-A.
 Alpha  occ. eigenvalues -- -101.55083 -19.13462 -14.41885 -14.41113 -14.39436
 Alpha  occ. eigenvalues --  -14.38939 -14.35717 -14.34727 -14.34321 -10.31451
 Alpha  occ. eigenvalues --  -10.27803 -10.26193 -10.25860 -10.24963 -10.23900
 Alpha  occ. eigenvalues --  -10.23650 -10.23130 -10.22344 -10.21870 -10.21725
 Alpha  occ. eigenvalues --  -10.21630 -10.21564 -10.21390 -10.21337 -10.21051
 Alpha  occ. eigenvalues --  -10.20735 -10.20640 -10.20517 -10.20384 -10.20031
 Alpha  occ. eigenvalues --  -10.19851 -10.19440  -9.46898  -7.23156  -7.22186
 Alpha  occ. eigenvalues --   -7.22148  -1.09418  -1.06616  -1.06027  -0.99114
 Alpha  occ. eigenvalues --   -0.93811  -0.92465  -0.90151  -0.86400  -0.85015
 Alpha  occ. eigenvalues --   -0.83868  -0.83052  -0.80242  -0.78866  -0.78194
 Alpha  occ. eigenvalues --   -0.77194  -0.76033  -0.74953  -0.74172  -0.71549
 Alpha  occ. eigenvalues --   -0.67825  -0.64985  -0.64865  -0.62699  -0.62509
 Alpha  occ. eigenvalues --   -0.61952  -0.61505  -0.60171  -0.59206  -0.57360
 Alpha  occ. eigenvalues --   -0.56133  -0.53632  -0.53200  -0.52704  -0.52499
 Alpha  occ. eigenvalues --   -0.51872  -0.49871  -0.49354  -0.48289  -0.47730
 Alpha  occ. eigenvalues --   -0.46855  -0.46642  -0.46082  -0.45888  -0.45392
 Alpha  occ. eigenvalues --   -0.45078  -0.44688  -0.44489  -0.44083  -0.43534
 Alpha  occ. eigenvalues --   -0.43250  -0.42620  -0.42267  -0.41368  -0.40651
 Alpha  occ. eigenvalues --   -0.40078  -0.39424  -0.39222  -0.37697  -0.37511
 Alpha  occ. eigenvalues --   -0.37014  -0.36663  -0.35563  -0.34004  -0.33321
 Alpha  occ. eigenvalues --   -0.32988  -0.31951  -0.31188  -0.30252  -0.29974
 Alpha  occ. eigenvalues --   -0.28443  -0.27875  -0.27685  -0.27037  -0.26939
 Alpha  occ. eigenvalues --   -0.26533  -0.25694  -0.24920  -0.23500  -0.22612
 Alpha virt. eigenvalues --   -0.04790  -0.04178  -0.03764  -0.03086  -0.02974
 Alpha virt. eigenvalues --    0.00026   0.00723   0.01060   0.02137   0.03576
 Alpha virt. eigenvalues --    0.04242   0.04505   0.06187   0.06368   0.06743

 Mulliken atomic charges:
              1
     1  Cl  -0.083990
     2  C   -0.138381
     3  C    0.115573
     4  C    0.048760
     5  C    0.045890
     6  C   -0.103908
     7  C    0.116298
     8  C    0.188137
     9  N   -0.275546
    10  C    0.155476
    11  O   -0.241748
    12  C    0.124211
    13  N   -0.227724
    14  N   -0.060202
    15  N   -0.182032
    16  C    0.011304
    17  C    0.044658
    18  C    0.037451
    19  C    0.039804
    20  C    0.027716
    21  C    0.213087
    22  C    0.195099
    23  C    0.042965
    24  C    0.064972
    25  C   -0.015967
    26  C    0.083200
    27  N   -0.229579
    28  C   -0.064517
    29  C    0.090714
    30  N    0.004422
    31  N   -0.168032
    32  C    0.089387
    33  H   -0.018142
    34  H   -0.016498
    35  H   -0.027063
    36  H   -0.031851
    37  H    0.015109
    38  H    0.060020
    39  H    0.066851
    40  H    0.062009
    41  H   -0.022139
    42  H   -0.027226
    43  H   -0.025361
    44  H   -0.028194
    45  H    0.000591
    46  H   -0.033762
    47  H   -0.012511
    48  H    0.001117
    49  H   -0.014122
    50  H    0.103674
 Sum of Mulliken atomic charges =   0.00000

 Dipole moment (field-independent basis, Debye):
    X=              4.2795    Y=              0.2185    Z=              3.3197  Tot=              5.4205
 Quadrupole moment (field-independent basis, Debye-Ang):
   XX=           -188.2028   YY=           -193.5084   ZZ=           -184.9577
   XY=            -23.6963   XZ=             -4.7645   YZ=            -10.8332

 Normal termination of Gaussian 09 at Sat Sep 10 14:27:27 2022.
