 Gaussian 09, Revision C.01,
 Gaussian 09:  EM64L-G09RevC.01 23-Sep-2011

 ---------------
 #p opt hf/6-31G
 ---------------

 (Enter /opt/gaussian/l101.exe)
 ---------
 Mol07.out
 ---------
 Charge =  0 Multiplicity = 1

 SCF Done:  E(RHF) =  -1647.88334997     A.U. after   18 cycles
 SCF Done:  E(RHF) =  -1647.91851068     A.U. after   15 cycles
 SCF Done:  E(RHF) =  -1647.92703050     A.U. after   16 cycles
 SCF Done:  E(RHF) =  -1647.92636245     A.U. after   16 cycles
 SCF Done:  E(RHF) =  -1647.92750989     A.U. after   16 cycles
 SCF Done:  E(RHF) =  -1647.92913733     A.U. after   14 cycles
 SCF Done:  E(RHF) =  -1647.92950429     A.U. after   14 cycles
 SCF Done:  E(RHF) =  -1647.92953893     A.U. after   14 cycles
 SCF Done:  E(RHF) =  -1647.92984771     A.U. after   14 cycles
 SCF Done:  E(RHF) =  -1647.92994549     A.U. after   13 cycles
 SCF Done:  E(RHF) =  -1647.92994394     A.U. after   12 cycles
 SCF Done:  E(RHF) =  -1647.92996363     A.U. after   12 cycles
 SCF Done:  E(RHF) =  -1647.92996575     A.U. after   11 cycles
 SCF Done:  E(RHF) =  -1647.92996617     A.U. after   11 cycles
 SCF Done:  E(RHF) =  -1647.92996659     A.U. after    9 cycles
 SCF Done:  E(RHF) =  -1647.92996664     A.U. after    8 cycles
 Optimization completed.
    -- Stationary point found.

                         Standard orientation:
 ---------------------------------------------------------------------
 Center     Atomic      Atomic             Coordinates (Angstroms)
 Number     Number       Type             X           Y           Z
 ---------------------------------------------------------------------
      1          8           0       -3.351175   -2.428209    0.203304
      2          6           0       -2.236707   -1.910992    0.170909
      3          6           0       -1.134728   -2.560240    0.996138
      4          7           0        0.079872   -2.825755    0.263756
      5          7           0        0.023494   -3.407633   -0.964117
      6          7           0        1.201474   -3.603406   -1.397856
      7          6           0        2.106137   -3.162874   -0.446895
      8          6           0        1.384066   -2.661553    0.629427
      9          6           0        2.022496   -2.138964    1.758570
     10          6           0        3.396696   -2.144469    1.745314
     11          6           0        4.135278   -2.652427    0.652448
     12          6           0        3.500961   -3.165570   -0.452108
     13          7           0       -1.990269   -0.776427   -0.530808
     14          6           0       -3.087396   -0.235534   -1.359932
     15          6           0       -3.979892    0.730221   -0.621027
     16          6           0       -5.035666    0.355884    0.124314
     17         16           0       -5.868500    1.752425    0.866841
     18          6           0       -4.687720    2.848182    0.087892
     19          6           0       -3.787781    2.166925   -0.637432
     20          6           0       -0.791440   -0.001110   -0.423237
     21          6           0       -0.585729    0.824522    0.673252
     22          6           0        0.562147    1.598783    0.759621
     23          6           0        1.519258    1.574631   -0.252163
     24          6           0        1.289744    0.754623   -1.358374
     25          6           0        0.149483   -0.024913   -1.444694
     26          6           0        2.755404    2.397187   -0.156396
     27          6           0        2.696029    3.734445    0.234675
     28          6           0        3.849291    4.499162    0.323877
     29          6           0        5.082524    3.939620    0.022964
     30          6           0        5.154157    2.609895   -0.366363
     31          6           0        4.001043    1.844940   -0.454719
     32          1           0       -1.556172   -3.480619    1.368022
     33          1           0       -0.886161   -1.926466    1.834723
     34          1           0        1.477070   -1.747752    2.593481
     35          1           0        3.929432   -1.751691    2.589392
     36          1           0        5.206267   -2.636614    0.697729
     37          1           0        4.040643   -3.559275   -1.289702
     38          1           0       -2.632912    0.253899   -2.209400
     39          1           0       -3.661606   -1.072885   -1.719245
     40          1           0       -5.378840   -0.637255    0.307015
     41          1           0       -4.765642    3.902279    0.229423
     42          1           0       -2.997780    2.640902   -1.184593
     43          1           0       -1.325710    0.867845    1.449237
     44          1           0        0.718050    2.214711    1.623861
     45          1           0        2.003156    0.732667   -2.158610
     46          1           0       -0.008962   -0.663159   -2.291609
     47          1           0        1.744761    4.182373    0.449710
     48          1           0        3.783507    5.528607    0.619566
     49          1           0        5.974882    4.531395    0.090609
     50          1           0        6.104671    2.167251   -0.594797
     51          1           0        4.068828    0.810979   -0.733904
 ---------------------------------------------------------------------

 The electronic state is 1-A.
 Alpha  occ. eigenvalues --  -91.96584 -20.54234 -15.67275 -15.66600 -15.62223
 Alpha  occ. eigenvalues --  -15.60812 -11.38353 -11.30967 -11.30653 -11.29631
 Alpha  occ. eigenvalues --  -11.27987 -11.27672 -11.27301 -11.26788 -11.26648
 Alpha  occ. eigenvalues --  -11.26578 -11.26427 -11.26403 -11.25962 -11.25736
 Alpha  occ. eigenvalues --  -11.25403 -11.25370 -11.25280 -11.25202 -11.25029
 Alpha  occ. eigenvalues --  -11.24680 -11.24638 -11.24590 -11.24561 -11.24498
 Alpha  occ. eigenvalues --  -11.24426  -8.98384  -6.66517  -6.66386  -6.66125
 Alpha  occ. eigenvalues --   -1.48493  -1.41383  -1.27750  -1.25465  -1.18954
 Alpha  occ. eigenvalues --   -1.18831  -1.17571  -1.15979  -1.07448  -1.07072
 Alpha  occ. eigenvalues --   -1.06072  -1.04302  -1.03724  -1.02901  -1.01775
 Alpha  occ. eigenvalues --   -0.99735  -0.98940  -0.92700  -0.89935  -0.87851
 Alpha  occ. eigenvalues --   -0.86470  -0.86080  -0.83675  -0.83189  -0.81643
 Alpha  occ. eigenvalues --   -0.78062  -0.77664  -0.75081  -0.73541  -0.73390
 Alpha  occ. eigenvalues --   -0.72959  -0.71327  -0.69298  -0.67832  -0.67530
 Alpha  occ. eigenvalues --   -0.66628  -0.66414  -0.65557  -0.63913  -0.63438
 Alpha  occ. eigenvalues --   -0.63209  -0.62907  -0.62788  -0.61079  -0.60663
 Alpha  occ. eigenvalues --   -0.59819  -0.59435  -0.58539  -0.58430  -0.55165
 Alpha  occ. eigenvalues --   -0.54814  -0.54572  -0.54106  -0.53051  -0.51987
 Alpha  occ. eigenvalues --   -0.51906  -0.51301  -0.51017  -0.50760  -0.50475
 Alpha  occ. eigenvalues --   -0.50234  -0.49472  -0.49368  -0.46150  -0.45455
 Alpha  occ. eigenvalues --   -0.43679  -0.42864  -0.39141  -0.37541  -0.35818
 Alpha  occ. eigenvalues --   -0.34810  -0.34652  -0.34451  -0.33297  -0.33182
 Alpha  occ. eigenvalues --   -0.31454
 Alpha virt. eigenvalues --    0.08623   0.09725   0.11715   0.12971   0.13350
 Alpha virt. eigenvalues --    0.14717   0.15809   0.17122   0.18672   0.19044
 Alpha virt. eigenvalues --    0.21872   0.22781   0.23439   0.23723   0.25064

 Mulliken atomic charges:
              1
     1  O   -0.613494
     2  C    0.804782
     3  C   -0.103675
     4  N   -0.881364
     5  N    0.100995
     6  N   -0.338625
     7  C   -0.015058
     8  C    0.452558
     9  C   -0.071252
    10  C   -0.203983
    11  C   -0.236727
    12  C   -0.081958
    13  N   -0.919836
    14  C   -0.104668
    15  C    0.063821
    16  C   -0.568721
    17  S    0.453631
    18  C   -0.566220
    19  C   -0.084013
    20  C    0.256926
    21  C   -0.179844
    22  C   -0.208130
    23  C   -0.019249
    24  C   -0.203108
    25  C   -0.169122
    26  C   -0.035209
    27  C   -0.194235
    28  C   -0.201455
    29  C   -0.194532
    30  C   -0.202549
    31  C   -0.195650
    32  H    0.254156
    33  H    0.215465
    34  H    0.227783
    35  H    0.210042
    36  H    0.206914
    37  H    0.242850
    38  H    0.192167
    39  H    0.238324
    40  H    0.268777
    41  H    0.226734
    42  H    0.217530
    43  H    0.228716
    44  H    0.219628
    45  H    0.224603
    46  H    0.245273
    47  H    0.210973
    48  H    0.203922
    49  H    0.203867
    50  H    0.203044
    51  H    0.219197
 Sum of Mulliken atomic charges =   0.00000

 Dipole moment (field-independent basis, Debye):
    X=              5.6148    Y=              4.3766    Z=              2.6274  Tot=              7.5884
 Quadrupole moment (field-independent basis, Debye-Ang):
   XX=           -192.8541   YY=           -196.3027   ZZ=           -185.5401
   XY=             -6.3287   XZ=              3.6630   YZ=             -8.5374

 1\1\GINC-LQCAPF-6\FOpt\RHF\6-31G\C25H20N4O1S1\LQCAPF-6\26-Aug-2022\0\\
 #p opt hf/6-31G\\Mol07.out\\0,1\O,15.4075716229,-8.1306076211,-1.60444
 06855\C,16.5851060533,-8.2809179334,-1.922910089\C,17.5780115003,-8.60
 62925131,-0.816043527\N,18.4125976269,-9.7527890919,-1.0827780043\N,17
 .8623468009,-10.902321968,-1.557363264\N,18.7611556936,-11.7941617368,
 -1.6615626344\C,19.9673613594,-11.2639197222,-1.2364486421\C,19.744835
 3654,-9.9449653745,-0.8595964172\C,20.7804155964,-9.1367200332,-0.3800
 471038\C,22.0256436388,-9.7132787058,-0.3050754492\C,22.2568692791,-11

 Normal termination of Gaussian 09 at Fri Aug 26 14:12:55 2022.
