 Gaussian 09, Revision C.01,
 Gaussian 09:  EM64L-G09RevC.01 23-Sep-2011

 ---------------
 #p opt hf/6-31G
 ---------------

 (Enter /opt/gaussian/l101.exe)
 ---------
 Mol01.out
 ---------
 Charge =  0 Multiplicity = 1

 SCF Done:  E(RHF) =  -1701.94783486     A.U. after   17 cycles
 SCF Done:  E(RHF) =  -1701.98539100     A.U. after   15 cycles
 SCF Done:  E(RHF) =  -1701.99662407     A.U. after   16 cycles
 SCF Done:  E(RHF) =  -1701.99846723     A.U. after   16 cycles
 SCF Done:  E(RHF) =  -1701.99971452     A.U. after   15 cycles
 SCF Done:  E(RHF) =  -1702.00107978     A.U. after   16 cycles
 SCF Done:  E(RHF) =  -1702.00234425     A.U. after   15 cycles
 SCF Done:  E(RHF) =  -1702.00372272     A.U. after   16 cycles
 SCF Done:  E(RHF) =  -1702.00500782     A.U. after   16 cycles
 SCF Done:  E(RHF) =  -1702.00660510     A.U. after   16 cycles
 SCF Done:  E(RHF) =  -1702.01220973     A.U. after   16 cycles
 SCF Done:  E(RHF) =  -1702.01238956     A.U. after   16 cycles
 SCF Done:  E(RHF) =  -1702.01250618     A.U. after   15 cycles
 SCF Done:  E(RHF) =  -1702.01253041     A.U. after   13 cycles
 SCF Done:  E(RHF) =  -1702.01253468     A.U. after   12 cycles
 SCF Done:  E(RHF) =  -1702.01253934     A.U. after   12 cycles
 SCF Done:  E(RHF) =  -1702.01254114     A.U. after   12 cycles
 SCF Done:  E(RHF) =  -1702.01254199     A.U. after   10 cycles
 SCF Done:  E(RHF) =  -1702.01254227     A.U. after   10 cycles
 SCF Done:  E(RHF) =  -1702.01254233     A.U. after    8 cycles
 Optimization completed.
    -- Stationary point found.

                         Standard orientation:
 ---------------------------------------------------------------------
 Center     Atomic      Atomic             Coordinates (Angstroms)
 Number     Number       Type             X           Y           Z
 ---------------------------------------------------------------------
      1          8           0        1.139392   -1.478442   -0.089549
      2          6           0        1.302061   -0.433514   -0.700125
      3          6           0        2.661315   -0.085269   -1.294860
      4          7           0        3.637406   -1.101070   -1.048117
      5          7           0        3.954935   -1.984875   -2.036120
      6          7           0        4.800095   -2.822823   -1.599556
      7          6           0        5.077064   -2.530783   -0.273363
      8          6           0        5.935297   -3.151543    0.633057
      9          6           0        6.004842   -2.621397    1.898113
     10          6           0        5.232723   -1.494503    2.258501
     11          6           0        4.382131   -0.878675    1.371659
     12          6           0        4.319866   -1.423179    0.086420
     13          7           0        0.295872    0.478565   -0.883763
     14          6           0        0.508114    1.780008   -1.519873
     15          6           0        1.063563    2.851571   -0.610804
     16          6           0        1.462519    4.143916   -1.134573
     17          6           0        1.917526    4.993377   -0.202147
     18         16           0        1.892896    4.261113    1.427763
     19          6           0        1.230567    2.756888    0.718778
     20          6           0       -1.038714    0.152386   -0.456196
     21          6           0       -2.051157    0.036461   -1.394866
     22          6           0       -3.356821   -0.243304   -1.021161
     23          6           0       -3.657227   -0.432509    0.324413
     24          6           0       -2.634740   -0.336157    1.266968
     25          6           0       -1.340511   -0.044611    0.882898
     26          7           0       -4.947193   -0.734453    0.805113
     27          6           0       -6.119592   -0.813176    0.114760
     28          8           0       -6.208121   -0.613183   -1.096536
     29          6           0       -7.307092   -1.160438    0.929959
     30          6           0       -8.389813   -2.001765    0.279812
     31          6           0       -8.640948   -0.556562    0.531479
     32          1           0        2.577883    0.004673   -2.368022
     33          1           0        3.010739    0.860492   -0.903233
     34          1           0        6.510151   -4.006628    0.339807
     35          1           0        6.649971   -3.064562    2.630720
     36          1           0        5.312853   -1.113050    3.258028
     37          1           0        3.793271   -0.031091    1.659475
     38          1           0        1.153372    1.674906   -2.383032
     39          1           0       -0.447256    2.109999   -1.901637
     40          1           0        1.399150    4.397603   -2.174113
     41          1           0        2.269561    5.991591   -0.332433
     42          1           0        1.002038    1.932773    1.353914
     43          1           0       -1.824622    0.153839   -2.437215
     44          1           0       -4.124876   -0.321453   -1.756620
     45          1           0       -2.850742   -0.491219    2.307601
     46          1           0       -0.566224    0.001177    1.620513
     47          1           0       -4.997641   -0.914187    1.779533
     48          1           0       -7.133600   -1.313416    1.977276
     49          1           0       -8.211441   -2.307647   -0.731121
     50          1           0       -8.877167   -2.731493    0.896138
     51          1           0       -9.304895   -0.272405    1.324183
     52          1           0       -8.630677    0.104519   -0.311291
 ---------------------------------------------------------------------

 The electronic state is 1-A.
 Alpha  occ. eigenvalues --  -91.98452 -20.54578 -20.53752 -15.66186 -15.65279
 Alpha  occ. eigenvalues --  -15.61679 -15.61561 -15.60968 -11.38506 -11.38185
 Alpha  occ. eigenvalues --  -11.30956 -11.30788 -11.30361 -11.29380 -11.29329
 Alpha  occ. eigenvalues --  -11.28876 -11.28759 -11.27645 -11.26465 -11.26386
 Alpha  occ. eigenvalues --  -11.25982 -11.25349 -11.25225 -11.25204 -11.25156
 Alpha  occ. eigenvalues --  -11.24999 -11.24901 -11.24769 -11.24698 -11.24009
 Alpha  occ. eigenvalues --  -11.23728  -9.00235  -6.68368  -6.68234  -6.67970
 Alpha  occ. eigenvalues --   -1.47298  -1.41844  -1.40833  -1.28342  -1.27210
 Alpha  occ. eigenvalues --   -1.24733  -1.19654  -1.17659  -1.17517  -1.15922
 Alpha  occ. eigenvalues --   -1.06484  -1.05807  -1.05241  -1.03796  -1.03016
 Alpha  occ. eigenvalues --   -1.01211  -1.00808  -0.94921  -0.92628  -0.88748
 Alpha  occ. eigenvalues --   -0.86817  -0.86069  -0.84854  -0.84300  -0.81837
 Alpha  occ. eigenvalues --   -0.80325  -0.79203  -0.77577  -0.75697  -0.74195
 Alpha  occ. eigenvalues --   -0.73105  -0.72739  -0.72321  -0.72096  -0.70511
 Alpha  occ. eigenvalues --   -0.68634  -0.66175  -0.65577  -0.65398  -0.64841
 Alpha  occ. eigenvalues --   -0.63817  -0.63036  -0.62450  -0.61918  -0.61715
 Alpha  occ. eigenvalues --   -0.61190  -0.60906  -0.60470  -0.59631  -0.59323
 Alpha  occ. eigenvalues --   -0.57361  -0.56137  -0.54867  -0.54334  -0.53610
 Alpha  occ. eigenvalues --   -0.53429  -0.53066  -0.52554  -0.52412  -0.51791
 Alpha  occ. eigenvalues --   -0.51084  -0.50436  -0.49346  -0.47938  -0.45513
 Alpha  occ. eigenvalues --   -0.45332  -0.44423  -0.42859  -0.42593  -0.42373
 Alpha  occ. eigenvalues --   -0.42076  -0.39822  -0.36298  -0.35439  -0.34819
 Alpha  occ. eigenvalues --   -0.33575  -0.32036  -0.31162
 Alpha virt. eigenvalues --    0.09992   0.10965   0.12055   0.13236   0.15898
 Alpha virt. eigenvalues --    0.16454   0.17115   0.19021   0.19942   0.20128
 Alpha virt. eigenvalues --    0.20750   0.21191   0.22801   0.23697   0.24128

 Mulliken atomic charges:
              1
     1  O   -0.569213
     2  C    0.790414
     3  C   -0.130564
     4  N   -0.882678
     5  N    0.098671
     6  N   -0.335562
     7  C   -0.019198
     8  C   -0.078645
     9  C   -0.233814
    10  C   -0.205284
    11  C   -0.067777
    12  C    0.487320
    13  N   -0.976329
    14  C   -0.075390
    15  C    0.079462
    16  C   -0.105519
    17  C   -0.551027
    18  S    0.472885
    19  C   -0.594516
    20  C    0.297844
    21  C   -0.187085
    22  C   -0.181342
    23  C    0.391121
    24  C   -0.263504
    25  C   -0.131355
    26  N   -1.061448
    27  C    0.886049
    28  O   -0.643765
    29  C   -0.384316
    30  C   -0.307255
    31  C   -0.307994
    32  H    0.251044
    33  H    0.234414
    34  H    0.240436
    35  H    0.203388
    36  H    0.203967
    37  H    0.221453
    38  H    0.186768
    39  H    0.222167
    40  H    0.221120
    41  H    0.237122
    42  H    0.236584
    43  H    0.216205
    44  H    0.293067
    45  H    0.204615
    46  H    0.223229
    47  H    0.387013
    48  H    0.191189
    49  H    0.223399
    50  H    0.185450
    51  H    0.184585
    52  H    0.222603
 Sum of Mulliken atomic charges =   0.00000

 Dipole moment (field-independent basis, Debye):
    X=             -2.6797    Y=              5.4531    Z=              4.2877  Tot=              7.4365
 Quadrupole moment (field-independent basis, Debye-Ang):
   XX=           -178.1839   YY=           -193.9946   ZZ=           -180.5371
   XY=             20.1207   XZ=             -8.9780   YZ=            -23.2601

 1\1\GINC-LQCAPF-6\FOpt\RHF\6-31G\C23H21N5O2S1\LQCAPF-6\26-Aug-2022\0\\
 #p opt hf/6-31G\\Mol01.out\\0,1\O,21.0825038833,-7.0102603243,-0.46660
 13387\C,21.6586363658,-8.0309170544,-0.1238618677\C,23.0955258565,-7.9
 791265346,0.3813335777\N,23.6179395228,-6.6478129593,0.3945211686\N,23
 .675334392,-5.9579260649,1.568765167\N,24.1246071524,-4.7921692634,1.3
 538128253\C,24.3798817986,-4.6528845868,-0.0012600044\C,24.8813965613,
 -3.5716421024,-0.7243798582\C,25.03435434,-3.7372961441,-2.0791566961\
 C,24.6924300055,-4.9560433137,-2.7065972244\C,24.1946645506,-6.0255873

 Normal termination of Gaussian 09 at Fri Aug 26 13:42:23 2022.
