 Gaussian 09, Revision C.01,
 Gaussian 09:  EM64L-G09RevC.01 23-Sep-2011

 ---------------
 #p opt hf/6-31G
 ---------------

 (Enter /opt/gaussian/l101.exe)
 ---------
 Mol09.out
 ---------
 Charge =  0 Multiplicity = 1

 SCF Done:  E(RHF) =  -1418.42005746     A.U. after   17 cycles
 SCF Done:  E(RHF) =  -1418.45289985     A.U. after   15 cycles
 SCF Done:  E(RHF) =  -1418.46023307     A.U. after   15 cycles
 SCF Done:  E(RHF) =  -1418.46082958     A.U. after   16 cycles
 SCF Done:  E(RHF) =  -1418.46110041     A.U. after   14 cycles
 SCF Done:  E(RHF) =  -1418.46165180     A.U. after   14 cycles
 SCF Done:  E(RHF) =  -1418.46187787     A.U. after   14 cycles
 SCF Done:  E(RHF) =  -1418.46199171     A.U. after   13 cycles
 SCF Done:  E(RHF) =  -1418.46208936     A.U. after   14 cycles
 SCF Done:  E(RHF) =  -1418.46216342     A.U. after   14 cycles
 SCF Done:  E(RHF) =  -1418.46219218     A.U. after   14 cycles
 SCF Done:  E(RHF) =  -1418.46221246     A.U. after   13 cycles
 SCF Done:  E(RHF) =  -1418.46222876     A.U. after   12 cycles
 SCF Done:  E(RHF) =  -1418.46223179     A.U. after   12 cycles
 SCF Done:  E(RHF) =  -1418.46223371     A.U. after   10 cycles
 SCF Done:  E(RHF) =  -1418.46223421     A.U. after   10 cycles
 SCF Done:  E(RHF) =  -1418.46223434     A.U. after    9 cycles
 SCF Done:  E(RHF) =  -1418.46223437     A.U. after    8 cycles
 Optimization completed.
    -- Stationary point found.

                         Standard orientation:
 ---------------------------------------------------------------------
 Center     Atomic      Atomic             Coordinates (Angstroms)
 Number     Number       Type             X           Y           Z
 ---------------------------------------------------------------------
      1          8           0        0.234009   -1.708293   -0.044764
      2          6           0        0.088668   -0.497930   -0.235370
      3          6           0        1.047429    0.200680   -1.186954
      4          7           0        2.353172    0.345547   -0.583981
      5          7           0        2.796947    1.585963   -0.229265
      6          7           0        3.981385    1.500993    0.218601
      7          6           0        4.384298    0.176700    0.174519
      8          6           0        5.594498   -0.414468    0.539524
      9          6           0        5.705724   -1.771452    0.368088
     10          6           0        4.631073   -2.531692   -0.148307
     11          6           0        3.433513   -1.960417   -0.505418
     12          6           0        3.334074   -0.574829   -0.339029
     13          7           0       -0.874588    0.215673    0.391555
     14          6           0       -1.734324   -0.492787    1.364033
     15          6           0       -2.956735   -1.126841    0.748608
     16          6           0       -4.259005   -0.490722    0.721892
     17          6           0       -5.213546   -1.222612    0.127261
     18         16           0       -4.572370   -2.786084   -0.459978
     19          6           0       -2.960007   -2.341350    0.169253
     20          6           0       -1.147245    1.602580    0.140427
     21          6           0       -0.503920    2.582221    0.885197
     22          6           0       -0.791495    3.920704    0.662063
     23          6           0       -1.723290    4.281882   -0.300751
     24          6           0       -2.366617    3.302403   -1.044197
     25          6           0       -2.080295    1.962422   -0.824834
     26          1           0        1.128385   -0.417866   -2.069343
     27          1           0        0.724195    1.184628   -1.471734
     28          1           0        6.393553    0.180166    0.933970
     29          1           0        6.615773   -2.272512    0.633204
     30          1           0        4.754805   -3.592031   -0.253967
     31          1           0        2.606865   -2.542581   -0.853815
     32          1           0       -1.127795   -1.245786    1.839280
     33          1           0       -2.026488    0.230551    2.111499
     34          1           0       -4.441604    0.476980    1.144207
     35          1           0       -6.243179   -0.982962   -0.012840
     36          1           0       -2.132677   -3.004114    0.052205
     37          1           0        0.226724    2.296750    1.615620
     38          1           0       -0.283820    4.674496    1.230851
     39          1           0       -1.942546    5.317595   -0.473379
     40          1           0       -3.085360    3.577621   -1.791263
     41          1           0       -2.576177    1.198559   -1.391132
 ---------------------------------------------------------------------

 The electronic state is 1-A.
 Alpha  occ. eigenvalues --  -91.96949 -20.54510 -15.66737 -15.66033 -15.61582
 Alpha  occ. eigenvalues --  -15.61573 -11.38526 -11.30569 -11.29845 -11.29568
 Alpha  occ. eigenvalues --  -11.28477 -11.27668 -11.27174 -11.26809 -11.25693
 Alpha  occ. eigenvalues --  -11.25541 -11.25497 -11.25467 -11.25426 -11.25280
 Alpha  occ. eigenvalues --  -11.25274 -11.25087 -11.24951 -11.24876 -11.24216
 Alpha  occ. eigenvalues --   -8.98749  -6.66881  -6.66750  -6.66490  -1.47719
 Alpha  occ. eigenvalues --   -1.41587  -1.28056  -1.24900  -1.18172  -1.17779
 Alpha  occ. eigenvalues --   -1.16949  -1.06604  -1.05664  -1.04440  -1.04107
 Alpha  occ. eigenvalues --   -1.02713  -1.00838  -0.99322  -0.93055  -0.88822
 Alpha  occ. eigenvalues --   -0.86734  -0.85483  -0.85127  -0.82241  -0.78433
 Alpha  occ. eigenvalues --   -0.77777  -0.74823  -0.73665  -0.72384  -0.72025
 Alpha  occ. eigenvalues --   -0.70276  -0.69300  -0.67565  -0.65799  -0.65416
 Alpha  occ. eigenvalues --   -0.65021  -0.63289  -0.62523  -0.62361  -0.60969
 Alpha  occ. eigenvalues --   -0.59918  -0.59793  -0.58779  -0.58330  -0.55491
 Alpha  occ. eigenvalues --   -0.53636  -0.53326  -0.52983  -0.52482  -0.52103
 Alpha  occ. eigenvalues --   -0.51449  -0.50861  -0.50694  -0.50534  -0.49540
 Alpha  occ. eigenvalues --   -0.46509  -0.45647  -0.42800  -0.42532  -0.39284
 Alpha  occ. eigenvalues --   -0.35770  -0.35645  -0.34784  -0.33869  -0.33398
 Alpha  occ. eigenvalues --   -0.32026
 Alpha virt. eigenvalues --    0.09586   0.11301   0.12174   0.13004   0.15194
 Alpha virt. eigenvalues --    0.16782   0.18310   0.20243   0.22219   0.22839
 Alpha virt. eigenvalues --    0.24493   0.25077   0.25347   0.26444   0.27808

 Mulliken atomic charges:
              1
     1  O   -0.636212
     2  C    0.800206
     3  C   -0.106264
     4  N   -0.877986
     5  N    0.085726
     6  N   -0.338465
     7  C   -0.015612
     8  C   -0.084384
     9  C   -0.229889
    10  C   -0.212615
    11  C   -0.061734
    12  C    0.441629
    13  N   -0.918466
    14  C   -0.102459
    15  C    0.063104
    16  C   -0.087411
    17  C   -0.565162
    18  S    0.457868
    19  C   -0.569542
    20  C    0.216869
    21  C   -0.143215
    22  C   -0.206900
    23  C   -0.184576
    24  C   -0.211812
    25  C   -0.168685
    26  H    0.230025
    27  H    0.252981
    28  H    0.238552
    29  H    0.203924
    30  H    0.206366
    31  H    0.266446
    32  H    0.236512
    33  H    0.194514
    34  H    0.218745
    35  H    0.228769
    36  H    0.267908
    37  H    0.235885
    38  H    0.217835
    39  H    0.211312
    40  H    0.211904
    41  H    0.234314
 Sum of Mulliken atomic charges =   0.00000

 Dipole moment (field-independent basis, Debye):
    X=             -2.1867    Y=              1.3402    Z=             -0.4673  Tot=              2.6069
 Quadrupole moment (field-independent basis, Debye-Ang):
   XX=           -148.3884   YY=           -153.4216   ZZ=           -150.1916
   XY=            -24.7488   XZ=              1.3251   YZ=              0.9241

 1\1\GINC-LQCAPF-6\FOpt\RHF\6-31G\C19H16N4O1S1\LQCAPF-6\26-Aug-2022\0\\
 #p opt hf/6-31G\\Mol09.out\\0,1\O,21.8978961607,-8.7797844084,-1.73823
 15917\C,20.7071257833,-8.6639503177,-1.4364360927\C,19.9779316878,-7.3
 978592237,-1.8584342253\N,20.3995178445,-6.2719935583,-1.0558015583\N,
 19.5301800901,-5.7204058439,-0.1605946437\N,20.0703462302,-4.712429499
 8,0.3897699738\C,21.3430771427,-4.545154073,-0.1300457274\C,22.3131038
 56,-3.5797251364,0.1425134284\C,23.4946286156,-3.6657863926,-0.5501334
 829\C,23.714614128,-4.6979430234,-1.4912835356\C,22.7684982408,-5.6566

 Normal termination of Gaussian 09 at Fri Aug 26 15:01:11 2022.
