 Gaussian 09, Revision C.01,
 Gaussian 09:  EM64L-G09RevC.01 23-Sep-2011

 ---------------
 #p opt hf/6-31G
 ---------------

 (Enter /opt/gaussian/l101.exe)
 ---------
 Mol08.out
 ---------
 Charge =  0 Multiplicity = 1

 SCF Done:  E(RHF) =  -1663.85040247     A.U. after   18 cycles
 SCF Done:  E(RHF) =  -1663.88678547     A.U. after   15 cycles
 SCF Done:  E(RHF) =  -1663.89596173     A.U. after   15 cycles
 SCF Done:  E(RHF) =  -1663.89523633     A.U. after   16 cycles
 SCF Done:  E(RHF) =  -1663.89652408     A.U. after   16 cycles
 SCF Done:  E(RHF) =  -1663.89819700     A.U. after   14 cycles
 SCF Done:  E(RHF) =  -1663.89858260     A.U. after   14 cycles
 SCF Done:  E(RHF) =  -1663.89866809     A.U. after   14 cycles
 SCF Done:  E(RHF) =  -1663.89900060     A.U. after   14 cycles
 SCF Done:  E(RHF) =  -1663.89909798     A.U. after   13 cycles
 SCF Done:  E(RHF) =  -1663.89909809     A.U. after   12 cycles
 SCF Done:  E(RHF) =  -1663.89911759     A.U. after   11 cycles
 SCF Done:  E(RHF) =  -1663.89911996     A.U. after   11 cycles
 SCF Done:  E(RHF) =  -1663.89912035     A.U. after   10 cycles
 SCF Done:  E(RHF) =  -1663.89912074     A.U. after    9 cycles
 SCF Done:  E(RHF) =  -1663.89912079     A.U. after    8 cycles
 Optimization completed.
    -- Stationary point found.

                         Standard orientation:
 ---------------------------------------------------------------------
 Center     Atomic      Atomic             Coordinates (Angstroms)
 Number     Number       Type             X           Y           Z
 ---------------------------------------------------------------------
      1          8           0        3.344156   -2.444957    0.171145
      2          6           0        2.231917   -1.923314    0.144151
      3          6           0        1.130158   -2.575920    0.967220
      4          7           0       -0.097132   -2.811834    0.246029
      5          7           0       -0.064570   -3.370139   -0.993531
      6          7           0       -1.250553   -3.543324   -1.414805
      7          6           0       -2.136821   -3.111377   -0.442850
      8          6           0       -1.394174   -2.640232    0.633153
      9          6           0       -2.010965   -2.134598    1.781984
     10          6           0       -3.385259   -2.125049    1.788251
     11          6           0       -4.144690   -2.601807    0.695532
     12          6           0       -3.531557   -3.098979   -0.428293
     13          7           0        1.990232   -0.781223   -0.547695
     14          6           0        3.092124   -0.234369   -1.367849
     15          6           0        3.983196    0.721736   -0.615200
     16          6           0        5.036428    0.337374    0.128775
     17         16           0        5.867762    1.723827    0.890908
     18          6           0        4.690412    2.830062    0.121976
     19          6           0        3.792243    2.158659   -0.614714
     20          6           0        0.792765   -0.005308   -0.438879
     21          6           0       -0.141212   -0.017431   -1.467174
     22          6           0       -1.281940    0.760597   -1.379183
     23          6           0       -1.518100    1.565979   -0.263915
     24          6           0       -0.568111    1.580598    0.754322
     25          6           0        0.580945    0.808241    0.665266
     26          6           0       -2.754324    2.381877   -0.165462
     27          6           0       -2.709016    3.712944    0.243477
     28          7           0       -3.792000    4.476875    0.349868
     29          6           0       -4.983524    3.962762    0.052067
     30          6           0       -5.133155    2.650940   -0.367236
     31          6           0       -4.005824    1.852420   -0.474708
     32          1           0        0.900541   -1.956297    1.821823
     33          1           0        1.544625   -3.508496    1.315795
     34          1           0       -1.449679   -1.769094    2.618069
     35          1           0       -3.901694   -1.746409    2.648806
     36          1           0       -5.214737   -2.577494    0.757274
     37          1           0       -4.087206   -3.471212   -1.265302
     38          1           0        3.665523   -1.069689   -1.732964
     39          1           0        2.642006    0.264296   -2.214292
     40          1           0        5.378669   -0.658145    0.299998
     41          1           0        4.768753    3.882271    0.276679
     42          1           0        3.005075    2.640544   -1.159070
     43          1           0        0.022753   -0.646141   -2.319908
     44          1           0       -1.989275    0.748259   -2.185266
     45          1           0       -0.729151    2.185935    1.625121
     46          1           0        1.316590    0.843803    1.445525
     47          1           0       -1.775305    4.183032    0.476583
     48          1           0       -5.824767    4.616625    0.153640
     49          1           0       -6.105631    2.263349   -0.595833
     50          1           0       -4.095475    0.825980   -0.773715
 ---------------------------------------------------------------------

 The electronic state is 1-A.
 Alpha  occ. eigenvalues --  -91.96770 -20.54599 -15.67689 -15.67014 -15.62634
 Alpha  occ. eigenvalues --  -15.61211 -15.58358 -11.38740 -11.31354 -11.31087
 Alpha  occ. eigenvalues --  -11.30256 -11.28759 -11.28638 -11.28310 -11.28110
 Alpha  occ. eigenvalues --  -11.27523 -11.27479 -11.27180 -11.27060 -11.27023
 Alpha  occ. eigenvalues --  -11.27001 -11.26874 -11.26845 -11.26323 -11.26128
 Alpha  occ. eigenvalues --  -11.26046 -11.25906 -11.25826 -11.25731 -11.25254
 Alpha  occ. eigenvalues --  -11.24774  -8.98569  -6.66702  -6.66571  -6.66311
 Alpha  occ. eigenvalues --   -1.48913  -1.41770  -1.28819  -1.28173  -1.25880
 Alpha  occ. eigenvalues --   -1.19327  -1.18764  -1.17610  -1.11677  -1.07872
 Alpha  occ. eigenvalues --   -1.07523  -1.06484  -1.04871  -1.04197  -1.02723
 Alpha  occ. eigenvalues --   -1.00946  -0.99156  -0.92993  -0.90391  -0.89656
 Alpha  occ. eigenvalues --   -0.88472  -0.86568  -0.85438  -0.84502  -0.83524
 Alpha  occ. eigenvalues --   -0.78392  -0.78097  -0.75547  -0.74229  -0.73799
 Alpha  occ. eigenvalues --   -0.73609  -0.71955  -0.69949  -0.69368  -0.68336
 Alpha  occ. eigenvalues --   -0.68138  -0.67059  -0.66145  -0.65622  -0.64296
 Alpha  occ. eigenvalues --   -0.63915  -0.63680  -0.63429  -0.61613  -0.61109
 Alpha  occ. eigenvalues --   -0.59819  -0.59436  -0.58740  -0.58480  -0.56167
 Alpha  occ. eigenvalues --   -0.55974  -0.55268  -0.54985  -0.54401  -0.52865
 Alpha  occ. eigenvalues --   -0.52516  -0.52269  -0.51802  -0.51532  -0.50884
 Alpha  occ. eigenvalues --   -0.50791  -0.50667  -0.46345  -0.45850  -0.44137
 Alpha  occ. eigenvalues --   -0.43310  -0.41358  -0.40225  -0.39183  -0.37829
 Alpha  occ. eigenvalues --   -0.36405  -0.35215  -0.34698  -0.33920  -0.33498
 Alpha  occ. eigenvalues --   -0.32436
 Alpha virt. eigenvalues --    0.08143   0.08779   0.11136   0.11366   0.12644
 Alpha virt. eigenvalues --    0.14238   0.14943   0.16544   0.18506   0.18604
 Alpha virt. eigenvalues --    0.21420   0.22540   0.23187   0.23819   0.24819

 Mulliken atomic charges:
              1
     1  O   -0.611867
     2  C    0.805147
     3  C   -0.104257
     4  N   -0.881082
     5  N    0.101326
     6  N   -0.337807
     7  C   -0.014843
     8  C    0.451681
     9  C   -0.072014
    10  C   -0.205472
    11  C   -0.238240
    12  C   -0.083004
    13  N   -0.921066
    14  C   -0.105853
    15  C    0.063485
    16  C   -0.568876
    17  S    0.455979
    18  C   -0.565745
    19  C   -0.084842
    20  C    0.259898
    21  C   -0.168130
    22  C   -0.202232
    23  C   -0.010747
    24  C   -0.205562
    25  C   -0.179730
    26  C   -0.097290
    27  C    0.061215
    28  N   -0.532161
    29  C    0.059716
    30  C   -0.246923
    31  C   -0.139647
    32  H    0.215832
    33  H    0.255782
    34  H    0.228715
    35  H    0.210920
    36  H    0.207609
    37  H    0.243709
    38  H    0.239315
    39  H    0.192448
    40  H    0.268609
    41  H    0.228438
    42  H    0.217497
    43  H    0.248070
    44  H    0.224675
    45  H    0.224303
    46  H    0.231922
    47  H    0.219482
    48  H    0.213454
    49  H    0.216027
    50  H    0.232131
 Sum of Mulliken atomic charges =   0.00000

 Dipole moment (field-independent basis, Debye):
    X=             -5.3300    Y=              1.6028    Z=              1.9499  Tot=              5.8975
 Quadrupole moment (field-independent basis, Debye-Ang):
   XX=           -188.7580   YY=           -216.8768   ZZ=           -183.9233
   XY=             15.3280   XZ=             -0.8451   YZ=            -12.9657

 1\1\GINC-LQCAPF-6\FOpt\RHF\6-31G\C24H19N5O1S1\LQCAPF-6\26-Aug-2022\0\\
 #p opt hf/6-31G\\Mol08.out\\0,1\O,15.2691429945,-8.2414572634,1.055261
 9704\C,16.4590507675,-8.3601442062,1.3380154893\C,17.412650863,-8.7438
 728785,0.215246431\N,18.2892649702,-9.8475462468,0.5242189261\N,17.792
 359724,-10.9732943472,1.103054202\N,18.7190004428,-11.833323738,1.2283
 796328\C,19.8901278445,-11.3058728601,0.7116578773\C,19.6149488675,-10
 .0230995553,0.253341601\C,20.6053391347,-9.2271555988,-0.331045064\C,2
 1.8611136865,-9.7778121564,-0.4239033358\C,22.1459441935,-11.081503809

 Normal termination of Gaussian 09 at Fri Aug 26 14:42:12 2022.
