 Gaussian 09, Revision C.01,
 Gaussian 09:  EM64L-G09RevC.01 23-Sep-2011

 ---------------
 #p opt hf/6-31G
 ---------------

 (Enter /opt/gaussian/l101.exe)
 ---------
 Mol12.out
 ---------
 Charge =  0 Multiplicity = 1

 SCF Done:  E(RHF) =  -2059.21703878     A.U. after   17 cycles
 SCF Done:  E(RHF) =  -2059.30584152     A.U. after   15 cycles
 SCF Done:  E(RHF) =  -2059.36212418     A.U. after   16 cycles
 SCF Done:  E(RHF) =  -2059.37333752     A.U. after   16 cycles
 SCF Done:  E(RHF) =  -2059.37528581     A.U. after   16 cycles
 SCF Done:  E(RHF) =  -2059.37574308     A.U. after   18 cycles
 SCF Done:  E(RHF) =  -2059.37607607     A.U. after   15 cycles
 SCF Done:  E(RHF) =  -2059.37717286     A.U. after   16 cycles
 SCF Done:  E(RHF) =  -2059.37759190     A.U. after   16 cycles
 SCF Done:  E(RHF) =  -2059.37792545     A.U. after   19 cycles
 SCF Done:  E(RHF) =  -2059.37991532     A.U. after   14 cycles
 SCF Done:  E(RHF) =  -2059.37993502     A.U. after   14 cycles
 SCF Done:  E(RHF) =  -2059.37995045     A.U. after   14 cycles
 SCF Done:  E(RHF) =  -2059.37995986     A.U. after   13 cycles
 SCF Done:  E(RHF) =  -2059.37996705     A.U. after   13 cycles
 SCF Done:  E(RHF) =  -2059.37997274     A.U. after   13 cycles
 SCF Done:  E(RHF) =  -2059.37997436     A.U. after   11 cycles
 SCF Done:  E(RHF) =  -2059.37997493     A.U. after   10 cycles
 SCF Done:  E(RHF) =  -2059.37997514     A.U. after   10 cycles
 SCF Done:  E(RHF) =  -2059.37997523     A.U. after    9 cycles
 Optimization completed.
    -- Stationary point found.

                         Standard orientation:
 ---------------------------------------------------------------------
 Center     Atomic      Atomic             Coordinates (Angstroms)
 Number     Number       Type             X           Y           Z
 ---------------------------------------------------------------------
      1          6           0       -5.537777   -2.532850    1.184222
      2         16           0       -6.157822   -0.946767    0.503839
      3          8           0       -5.886565    0.217043    1.632220
      4          8           0       -7.676816   -1.148232   -0.111296
      5          7           0       -5.185717   -0.704805   -0.903728
      6          6           0       -3.816911   -0.307420   -0.847409
      7          6           0       -2.866393   -1.132495   -1.436881
      8          6           0       -1.530225   -0.776237   -1.434282
      9          6           0       -1.126065    0.398516   -0.809173
     10          6           0       -2.075967    1.214578   -0.209371
     11          6           0       -3.419646    0.873183   -0.236099
     12          7           0        0.255412    0.789869   -0.817247
     13          6           0        0.581363    2.128195   -1.339360
     14          6           0        1.223893    3.060846   -0.339516
     15          6           0        0.894387    3.093685    1.071687
     16          6           0        1.556307    4.036739    1.760515
     17         16           0        2.654902    4.978056    0.713485
     18          6           0        2.140670    3.985512   -0.678923
     19          6           0        1.209207   -0.109503   -0.416003
     20          8           0        0.922714   -1.211686    0.031775
     21          6           0        2.670194    0.307657   -0.502948
     22          7           0        3.541906   -0.823245   -0.636859
     23          7           0        4.068093   -1.108901   -1.863331
     24          7           0        4.818546   -2.127310   -1.774999
     25          6           0        4.820152   -2.570986   -0.462925
     26          6           0        5.493294   -3.638504    0.132206
     27          6           0        5.302152   -3.829400    1.477634
     28          6           0        4.449563   -2.979953    2.219898
     29          6           0        3.779094   -1.930313    1.640886
     30          6           0        3.988046   -1.735759    0.272509
     31          1           0       -4.488846   -2.409756    1.391952
     32          1           0       -6.095105   -2.717556    2.086629
     33          1           0       -5.720867   -3.286987    0.439861
     34          1           0       -5.760914   -0.470295   -1.685760
     35          1           0       -3.181848   -2.044641   -1.902970
     36          1           0       -0.804668   -1.419191   -1.884870
     37          1           0       -1.779010    2.120115    0.279996
     38          1           0       -4.147366    1.498826    0.237834
     39          1           0        1.209211    2.041515   -2.217948
     40          1           0       -0.351352    2.553093   -1.678043
     41          1           0        0.198198    2.421187    1.528080
     42          1           0        1.491789    4.260711    2.801219
     43          1           0        2.562062    4.171775   -1.642093
     44          1           0        2.862680    0.941666   -1.349890
     45          1           0        2.925993    0.864515    0.389596
     46          1           0        6.129629   -4.273203   -0.450768
     47          1           0        5.797268   -4.636150    1.980928
     48          1           0        4.317132   -3.171116    3.267145
     49          1           0        3.108351   -1.314340    2.203458
 ---------------------------------------------------------------------

 The electronic state is 1-A.
 Alpha  occ. eigenvalues --  -92.19439 -91.99310 -20.57015 -20.56837 -20.55811
 Alpha  occ. eigenvalues --  -15.66880 -15.66047 -15.63353 -15.63300 -15.61777
 Alpha  occ. eigenvalues --  -11.39815 -11.31730 -11.31698 -11.31601 -11.31256
 Alpha  occ. eigenvalues --  -11.31155 -11.30078 -11.29882 -11.29858 -11.28484
 Alpha  occ. eigenvalues --  -11.27134 -11.26952 -11.26812 -11.26658 -11.26533
 Alpha  occ. eigenvalues --  -11.26228 -11.25603 -11.25569 -11.25471 -11.24431
 Alpha  occ. eigenvalues --   -9.20163  -9.01093  -6.88299  -6.88232  -6.88185
 Alpha  occ. eigenvalues --   -6.69220  -6.69087  -6.68826  -1.47986  -1.43156
 Alpha  occ. eigenvalues --   -1.38559  -1.29692  -1.27205  -1.25858  -1.25374
 Alpha  occ. eigenvalues --   -1.20592  -1.18121  -1.17254  -1.08185  -1.06950
 Alpha  occ. eigenvalues --   -1.06585  -1.05832  -1.05472  -1.03354  -1.01882
 Alpha  occ. eigenvalues --   -1.01147  -0.95751  -0.90741  -0.89172  -0.87299
 Alpha  occ. eigenvalues --   -0.86739  -0.85415  -0.82502  -0.80945  -0.79052
 Alpha  occ. eigenvalues --   -0.76452  -0.75439  -0.73926  -0.73004  -0.72766
 Alpha  occ. eigenvalues --   -0.71816  -0.71139  -0.70152  -0.68369  -0.66442
 Alpha  occ. eigenvalues --   -0.66027  -0.65782  -0.65035  -0.64199  -0.63939
 Alpha  occ. eigenvalues --   -0.62969  -0.62707  -0.62225  -0.61923  -0.61482
 Alpha  occ. eigenvalues --   -0.60941  -0.60171  -0.57789  -0.57401  -0.55997
 Alpha  occ. eigenvalues --   -0.55487  -0.54122  -0.54050  -0.53562  -0.53323
 Alpha  occ. eigenvalues --   -0.53215  -0.52842  -0.50959  -0.49907  -0.48870
 Alpha  occ. eigenvalues --   -0.48278  -0.47154  -0.45576  -0.45106  -0.44891
 Alpha  occ. eigenvalues --   -0.43977  -0.43770  -0.42831  -0.42318  -0.37225
 Alpha  occ. eigenvalues --   -0.36636  -0.36073  -0.34648  -0.34111  -0.32380
 Alpha virt. eigenvalues --    0.09251   0.09455   0.09822   0.11467   0.14894
 Alpha virt. eigenvalues --    0.16086   0.16296   0.17028   0.17595   0.18906
 Alpha virt. eigenvalues --    0.19856   0.20608   0.20837   0.21552   0.22627

 Mulliken atomic charges:
              1
     1  C   -0.711785
     2  S    1.636695
     3  O   -0.723214
     4  O   -0.711947
     5  N   -1.085942
     6  C    0.206115
     7  C   -0.176208
     8  C   -0.147944
     9  C    0.326316
    10  C   -0.223309
    11  C   -0.141673
    12  N   -0.978305
    13  C   -0.097251
    14  C    0.051287
    15  C   -0.094944
    16  C   -0.557238
    17  S    0.489457
    18  C   -0.595984
    19  C    0.805242
    20  O   -0.588461
    21  C   -0.121735
    22  N   -0.882428
    23  N    0.086249
    24  N   -0.334827
    25  C   -0.021143
    26  C   -0.079858
    27  C   -0.232841
    28  C   -0.209159
    29  C   -0.055607
    30  C    0.481795
    31  H    0.248750
    32  H    0.256160
    33  H    0.245605
    34  H    0.431682
    35  H    0.230849
    36  H    0.249315
    37  H    0.227039
    38  H    0.279288
    39  H    0.204433
    40  H    0.229632
    41  H    0.236476
    42  H    0.241907
    43  H    0.236723
    44  H    0.242126
    45  H    0.247103
    46  H    0.240210
    47  H    0.204495
    48  H    0.205502
    49  H    0.231350
 Sum of Mulliken atomic charges =   0.00000

 Dipole moment (field-independent basis, Debye):
    X=              3.0124    Y=              0.8277    Z=              0.9452  Tot=              3.2638
 Quadrupole moment (field-independent basis, Debye-Ang):
   XX=           -259.6540   YY=           -179.0006   ZZ=           -186.0391
   XY=             15.6173   XZ=             24.2705   YZ=            -14.6618

 1\1\GINC-LQCAPF-6\FOpt\RHF\6-31G\C20H19N5O3S2\LQCAPF-6\26-Aug-2022\0\\
 #p opt hf/6-31G\\Mol12.out\\0,1\C,14.2214424727,-8.7994000133,-4.04090
 52401\S,13.8794032003,-10.2196446802,-2.9323253367\O,14.6829072857,-11
 .5219626667,-3.5320133792\O,12.2593888013,-10.3280047943,-2.6320983597
 \N,14.5337389963,-9.713477874,-1.415612622\C,15.9339990241,-9.66151548
 34,-1.1486137215\C,16.487762854,-8.4445718112,-0.7690011061\C,17.83477
 95555,-8.3496406425,-0.4709979027\C,18.6513382376,-9.4698247485,-0.583
 1186115\C,18.0982561283,-10.6815377889,-0.975400782\C,16.7423860244,-1

 Normal termination of Gaussian 09 at Fri Aug 26 16:52:52 2022.
