 Gaussian 09, Revision C.01,
 Gaussian 09:  EM64L-G09RevC.01 23-Sep-2011

 ---------------
 #p opt hf/6-31G
 ---------------

 (Enter /opt/gaussian/l101.exe)
 ---------
 Mol13.out
 ---------
 Charge =  0 Multiplicity = 1

 SCF Done:  E(RHF) =  -2136.04700340     A.U. after   17 cycles
 SCF Done:  E(RHF) =  -2136.13624177     A.U. after   15 cycles
 SCF Done:  E(RHF) =  -2136.19209692     A.U. after   17 cycles
 SCF Done:  E(RHF) =  -2136.20485767     A.U. after   17 cycles
 SCF Done:  E(RHF) =  -2136.20858277     A.U. after   16 cycles
 SCF Done:  E(RHF) =  -2136.21055454     A.U. after   17 cycles
 SCF Done:  E(RHF) =  -2136.21157973     A.U. after   17 cycles
 SCF Done:  E(RHF) =  -2136.21175878     A.U. after   18 cycles
 SCF Done:  E(RHF) =  -2136.21321379     A.U. after   16 cycles
 SCF Done:  E(RHF) =  -2136.21350597     A.U. after   15 cycles
 SCF Done:  E(RHF) =  -2136.21639439     A.U. after   17 cycles
 SCF Done:  E(RHF) =  -2136.21660068     A.U. after   16 cycles
 SCF Done:  E(RHF) =  -2136.21669013     A.U. after   14 cycles
 SCF Done:  E(RHF) =  -2136.21671029     A.U. after   15 cycles
 SCF Done:  E(RHF) =  -2136.21672476     A.U. after   12 cycles
 SCF Done:  E(RHF) =  -2136.21673228     A.U. after   14 cycles
 SCF Done:  E(RHF) =  -2136.21673599     A.U. after   14 cycles
 SCF Done:  E(RHF) =  -2136.21673686     A.U. after   11 cycles
 SCF Done:  E(RHF) =  -2136.21673727     A.U. after   11 cycles
 SCF Done:  E(RHF) =  -2136.21673735     A.U. after   10 cycles
 Optimization completed.
    -- Stationary point found.

                         Standard orientation:
 ---------------------------------------------------------------------
 Center     Atomic      Atomic             Coordinates (Angstroms)
 Number     Number       Type             X           Y           Z
 ---------------------------------------------------------------------
      1          8           0        1.231191   -1.237310   -0.593440
      2          6           0        1.566767   -0.125097   -0.968602
      3          6           0        3.037963    0.201008   -1.197154
      4          7           0        3.876347   -0.939725   -1.000124
      5          7           0        4.278868   -1.671620   -2.078346
      6          7           0        4.964030   -2.662529   -1.684940
      7          6           0        5.037786   -2.636565   -0.301045
      8          6           0        5.675254   -3.498358    0.590374
      9          6           0        5.573557   -3.206790    1.928569
     10          6           0        4.848543   -2.079370    2.374962
     11          6           0        4.215505   -1.226114    1.502797
     12          6           0        4.327133   -1.528834    0.143387
     13          7           0        0.660332    0.879073   -1.209969
     14          6           0        1.078154    2.251746   -1.510003
     15          6           0        1.536630    3.057740   -0.316946
     16          6           0        2.139491    4.365750   -0.482597
     17          6           0        2.483240    4.955963    0.671717
     18         16           0        2.088176    3.933302    2.082261
     19          6           0        1.441035    2.688397    0.972699
     20          6           0       -0.745928    0.598981   -1.168483
     21          6           0       -1.266546   -0.493601   -1.855259
     22          6           0       -2.626974   -0.738207   -1.832974
     23          6           0       -3.486618    0.117428   -1.154990
     24          6           0       -2.972253    1.215110   -0.480954
     25          6           0       -1.604572    1.446611   -0.480566
     26          7           0       -4.885174   -0.158869   -1.185550
     27         16           0       -5.813549   -0.499841    0.231833
     28          8           0       -5.389876    0.489502    1.473469
     29          8           0       -7.367180   -0.467662   -0.323401
     30          6           0       -5.320553   -2.180457    0.696316
     31          6           0       -5.470258   -2.579496    2.135799
     32          6           0       -4.104893   -2.367178    1.558890
     33          1           0        3.187172    0.521096   -2.217857
     34          1           0        3.352249    1.002619   -0.543640
     35          1           0        6.217924   -4.349139    0.230842
     36          1           0        6.045880   -3.840281    2.652975
     37          1           0        4.789193   -1.888972    3.429020
     38          1           0        3.659093   -0.380570    1.854206
     39          1           0        1.863622    2.242816   -2.256010
     40          1           0        0.235948    2.744761   -1.974887
     41          1           0        2.296005    4.820472   -1.440500
     42          1           0        2.938694    5.909388    0.816269
     43          1           0        1.029814    1.788253    1.371502
     44          1           0       -0.612961   -1.160809   -2.375257
     45          1           0       -3.032656   -1.586571   -2.346796
     46          1           0       -3.630097    1.861499    0.062754
     47          1           0       -1.216266    2.284778    0.061443
     48          1           0       -5.472905    0.229118   -1.893536
     49          1           0       -5.561807   -2.852396   -0.099071
     50          1           0       -5.828847   -1.838653    2.822026
     51          1           0       -5.823026   -3.574540    2.319513
     52          1           0       -3.483578   -3.210401    1.331733
     53          1           0       -3.576186   -1.490398    1.873637
 ---------------------------------------------------------------------

 The electronic state is 1-A.
 Alpha  occ. eigenvalues --  -92.18947 -91.99264 -20.56379 -20.56330 -20.56007
 Alpha  occ. eigenvalues --  -15.66880 -15.65992 -15.63278 -15.62555 -15.61716
 Alpha  occ. eigenvalues --  -11.39837 -11.31934 -11.31890 -11.31331 -11.31318
 Alpha  occ. eigenvalues --  -11.30511 -11.30155 -11.30000 -11.29758 -11.28623
 Alpha  occ. eigenvalues --  -11.27250 -11.27038 -11.27022 -11.26955 -11.26306
 Alpha  occ. eigenvalues --  -11.26161 -11.26012 -11.25899 -11.25794 -11.25752
 Alpha  occ. eigenvalues --  -11.25727 -11.24549  -9.19570  -9.01041  -6.87724
 Alpha  occ. eigenvalues --   -6.87647  -6.87602  -6.69170  -6.69036  -6.68774
 Alpha  occ. eigenvalues --   -1.48017  -1.43292  -1.38086  -1.29827  -1.26714
 Alpha  occ. eigenvalues --   -1.25524  -1.25174  -1.20557  -1.20339  -1.18265
 Alpha  occ. eigenvalues --   -1.16793  -1.07240  -1.06744  -1.06026  -1.05010
 Alpha  occ. eigenvalues --   -1.03662  -1.02045  -1.01579  -0.97243  -0.95799
 Alpha  occ. eigenvalues --   -0.89390  -0.88488  -0.86818  -0.86643  -0.85540
 Alpha  occ. eigenvalues --   -0.83272  -0.81875  -0.81004  -0.78703  -0.76530
 Alpha  occ. eigenvalues --   -0.75082  -0.74375  -0.73166  -0.72898  -0.72787
 Alpha  occ. eigenvalues --   -0.71405  -0.70402  -0.68958  -0.67516  -0.66994
 Alpha  occ. eigenvalues --   -0.66039  -0.65387  -0.65102  -0.64315  -0.63013
 Alpha  occ. eigenvalues --   -0.62698  -0.61878  -0.61505  -0.61308  -0.60344
 Alpha  occ. eigenvalues --   -0.59335  -0.58625  -0.57661  -0.56369  -0.55365
 Alpha  occ. eigenvalues --   -0.54951  -0.54169  -0.53892  -0.53608  -0.53303
 Alpha  occ. eigenvalues --   -0.53143  -0.52432  -0.51086  -0.49951  -0.48803
 Alpha  occ. eigenvalues --   -0.48631  -0.48325  -0.46978  -0.46485  -0.45609
 Alpha  occ. eigenvalues --   -0.44441  -0.44062  -0.43694  -0.43350  -0.42776
 Alpha  occ. eigenvalues --   -0.42216  -0.37122  -0.36389  -0.35947  -0.34223
 Alpha  occ. eigenvalues --   -0.34111  -0.32597
 Alpha virt. eigenvalues --    0.09355   0.09944   0.10040   0.11977   0.15286
 Alpha virt. eigenvalues --    0.15787   0.16233   0.17604   0.17930   0.18147
 Alpha virt. eigenvalues --    0.20026   0.20564   0.21015   0.22022   0.22943

 Mulliken atomic charges:
              1
     1  O   -0.569652
     2  C    0.787759
     3  C   -0.132028
     4  N   -0.882522
     5  N    0.096020
     6  N   -0.333524
     7  C   -0.019822
     8  C   -0.078262
     9  C   -0.233718
    10  C   -0.204561
    11  C   -0.069057
    12  C    0.486040
    13  N   -0.987221
    14  C   -0.085931
    15  C    0.064573
    16  C   -0.103699
    17  C   -0.551477
    18  S    0.485929
    19  C   -0.602945
    20  C    0.340160
    21  C   -0.155982
    22  C   -0.171409
    23  C    0.214227
    24  C   -0.142558
    25  C   -0.233025
    26  N   -1.088348
    27  S    1.709823
    28  O   -0.742727
    29  O   -0.711274
    30  C   -0.549963
    31  C   -0.321588
    32  C   -0.322647
    33  H    0.249967
    34  H    0.241425
    35  H    0.241640
    36  H    0.205438
    37  H    0.206852
    38  H    0.224218
    39  H    0.195708
    40  H    0.226674
    41  H    0.223465
    42  H    0.240762
    43  H    0.250305
    44  H    0.247485
    45  H    0.229822
    46  H    0.272709
    47  H    0.237994
    48  H    0.428621
    49  H    0.268893
    50  H    0.248061
    51  H    0.210497
    52  H    0.213413
    53  H    0.245461
 Sum of Mulliken atomic charges =   0.00000

 Dipole moment (field-independent basis, Debye):
    X=              4.2714    Y=              2.6918    Z=             -0.0722  Tot=              5.0494
 Quadrupole moment (field-independent basis, Debye-Ang):
   XX=           -262.3922   YY=           -182.7441   ZZ=           -200.2482
   XY=             33.3835   XZ=             21.2442   YZ=            -24.6542

 1\1\GINC-LQCAPF-6\FOpt\RHF\6-31G\C22H21N5O3S2\LQCAPF-6\26-Aug-2022\0\\
 #p opt hf/6-31G\\Mol13.out\\0,1\O,20.9193082455,-6.8646220852,0.022152
 1754\C,21.4667729395,-7.9503090586,0.1314220409\C,22.9776000795,-8.038
 0457072,0.312265286\N,23.5811018672,-6.7461826355,0.4115416754\N,23.86
 09893743,-6.2284347978,1.6419304932\N,24.3381819827,-5.0616766598,1.51
 1245624\C,24.3860873595,-4.7444238355,0.1627895188\C,24.8302535931,-3.
 59163558,-0.4833332023\C,24.7570315628,-3.5714116435,-1.8545920113\C,2
 4.2486455204,-4.6766779549,-2.5728668829\C,23.8068081994,-5.8159307438

 Normal termination of Gaussian 09 at Fri Aug 26 18:02:39 2022.
