 Gaussian 09, Revision C.01,
 Gaussian 09:  EM64L-G09RevC.01 23-Sep-2011

 ---------------
 #p opt hf/6-31G
 ---------------

 (Enter /opt/gaussian/l101.exe)
 ---------
 Mol16.out
 ---------
 Charge =  0 Multiplicity = 1

 SCF Done:  E(RHF) =  -1777.67325884     A.U. after   17 cycles
 SCF Done:  E(RHF) =  -1777.71442757     A.U. after   15 cycles
 SCF Done:  E(RHF) =  -1777.72827448     A.U. after   17 cycles
 SCF Done:  E(RHF) =  -1777.73014371     A.U. after   15 cycles
 SCF Done:  E(RHF) =  -1777.73099009     A.U. after   14 cycles
 SCF Done:  E(RHF) =  -1777.73053392     A.U. after   15 cycles
 SCF Done:  E(RHF) =  -1777.73149945     A.U. after   14 cycles
 SCF Done:  E(RHF) =  -1777.73179065     A.U. after   14 cycles
 SCF Done:  E(RHF) =  -1777.73183961     A.U. after   13 cycles
 SCF Done:  E(RHF) =  -1777.73186319     A.U. after   12 cycles
 SCF Done:  E(RHF) =  -1777.73187098     A.U. after   12 cycles
 SCF Done:  E(RHF) =  -1777.73187322     A.U. after   11 cycles
 SCF Done:  E(RHF) =  -1777.73187369     A.U. after   10 cycles
 SCF Done:  E(RHF) =  -1777.73187414     A.U. after   10 cycles
 SCF Done:  E(RHF) =  -1777.73187443     A.U. after   10 cycles
 SCF Done:  E(RHF) =  -1777.73187453     A.U. after   10 cycles
 SCF Done:  E(RHF) =  -1777.73187456     A.U. after    8 cycles
 Optimization completed.
    -- Stationary point found.

                         Standard orientation:
 ---------------------------------------------------------------------
 Center     Atomic      Atomic             Coordinates (Angstroms)
 Number     Number       Type             X           Y           Z
 ---------------------------------------------------------------------
      1          6           0        5.810981    0.354944    3.055603
      2          8           0        5.110235    0.112245    1.821829
      3          6           0        5.719573   -0.545530    0.808343
      4          7           0        6.985583   -0.871184    0.949619
      5          6           0        7.624578   -1.517909   -0.031522
      6          6           0        6.992834   -1.858229   -1.204234
      7          6           0        5.649452   -1.513339   -1.347954
      8          6           0        4.966909   -0.849682   -0.341279
      9          6           0        3.528466   -0.509113   -0.488253
     10          6           0        2.641320   -1.444382   -1.020003
     11          6           0        1.305527   -1.143066   -1.220286
     12          6           0        0.816648    0.109422   -0.874060
     13          6           0        1.686544    1.046322   -0.330614
     14          6           0        3.024910    0.742034   -0.144020
     15          7           0       -0.556618    0.457374   -1.119236
     16          6           0       -0.827152    1.740652   -1.771983
     17          6           0       -1.312582    2.838621   -0.853819
     18          6           0       -1.795385    4.100048   -1.381252
     19          6           0       -2.178905    4.973339   -0.438408
     20         16           0       -1.976233    4.303697    1.205923
     21          6           0       -1.346223    2.789778    0.489461
     22          6           0       -1.563139   -0.401333   -0.754700
     23          8           0       -1.363641   -1.422400   -0.115278
     24          6           0       -2.978095   -0.031176   -1.185796
     25          7           0       -3.926747   -1.049198   -0.854077
     26          7           0       -4.355961   -1.907050   -1.822980
     27          7           0       -5.159283   -2.748190   -1.318375
     28          6           0       -5.292160   -2.484866    0.035550
     29          6           0       -6.057103   -3.120089    1.013250
     30          6           0       -5.985979   -2.620547    2.290224
     31          6           0       -5.165340   -1.510723    2.593281
     32          6           0       -4.406331   -0.881100    1.636327
     33          6           0       -4.488633   -1.392991    0.338730
     34          1           0        6.673562    0.979087    2.884421
     35          1           0        5.095071    0.853320    3.685688
     36          1           0        6.127721   -0.576161    3.498375
     37          1           0        8.653203   -1.752181    0.148539
     38          1           0        7.517997   -2.369343   -1.984912
     39          1           0        5.133715   -1.754042   -2.256830
     40          1           0        2.991084   -2.427570   -1.268450
     41          1           0        0.646006   -1.887062   -1.613736
     42          1           0        1.326680    2.014771   -0.046208
     43          1           0        3.673834    1.475202    0.286517
     44          1           0        0.091496    2.052156   -2.248727
     45          1           0       -1.544460    1.605935   -2.572644
     46          1           0       -1.841727    4.315215   -2.430295
     47          1           0       -2.567904    5.957807   -0.568311
     48          1           0       -1.038834    1.991073    1.126567
     49          1           0       -3.273541    0.906009   -0.734649
     50          1           0       -3.019648    0.084494   -2.258373
     51          1           0       -6.669434   -3.962661    0.762727
     52          1           0       -6.554575   -3.075768    3.076839
     53          1           0       -5.131902   -1.155513    3.604982
     54          1           0       -3.774481   -0.051445    1.881119
 ---------------------------------------------------------------------

 The electronic state is 1-A.
 Alpha  occ. eigenvalues --  -91.98658 -20.58621 -20.54803 -15.66209 -15.65305
 Alpha  occ. eigenvalues --  -15.62078 -15.61033 -15.57349 -11.38708 -11.35137
 Alpha  occ. eigenvalues --  -11.30996 -11.30953 -11.29575 -11.29285 -11.29253
 Alpha  occ. eigenvalues --  -11.29057 -11.28588 -11.27885 -11.27834 -11.26670
 Alpha  occ. eigenvalues --  -11.26575 -11.26352 -11.26129 -11.25475 -11.25207
 Alpha  occ. eigenvalues --  -11.25080 -11.25066 -11.24373 -11.24244 -11.24202
 Alpha  occ. eigenvalues --  -11.23979 -11.23924 -11.23921  -9.00438  -6.68568
 Alpha  occ. eigenvalues --   -6.68435  -6.68172  -1.47324  -1.42401  -1.42084
 Alpha  occ. eigenvalues --   -1.28535  -1.27543  -1.24751  -1.19879  -1.17593
 Alpha  occ. eigenvalues --   -1.17089  -1.11208  -1.06821  -1.06219  -1.05376
 Alpha  occ. eigenvalues --   -1.04865  -1.02919  -1.02359  -1.01353  -1.00025
 Alpha  occ. eigenvalues --   -0.95869  -0.95011  -0.89427  -0.88645  -0.86020
 Alpha  occ. eigenvalues --   -0.85051  -0.84375  -0.83333  -0.81195  -0.80246
 Alpha  occ. eigenvalues --   -0.77498  -0.75791  -0.73711  -0.73335  -0.72390
 Alpha  occ. eigenvalues --   -0.72123  -0.71307  -0.70435  -0.68958  -0.68020
 Alpha  occ. eigenvalues --   -0.66300  -0.65662  -0.65340  -0.65124  -0.63956
 Alpha  occ. eigenvalues --   -0.63430  -0.63049  -0.62125  -0.61669  -0.60757
 Alpha  occ. eigenvalues --   -0.60380  -0.60256  -0.59487  -0.59298  -0.57711
 Alpha  occ. eigenvalues --   -0.56585  -0.56117  -0.55683  -0.54474  -0.53481
 Alpha  occ. eigenvalues --   -0.53174  -0.52860  -0.52674  -0.52321  -0.51371
 Alpha  occ. eigenvalues --   -0.50410  -0.49819  -0.49443  -0.49252  -0.48106
 Alpha  occ. eigenvalues --   -0.47886  -0.44512  -0.42867  -0.42302  -0.42138
 Alpha  occ. eigenvalues --   -0.41595  -0.39048  -0.36521  -0.35574  -0.34666
 Alpha  occ. eigenvalues --   -0.34115  -0.33520  -0.31899  -0.30073
 Alpha virt. eigenvalues --    0.09759   0.10034   0.10683   0.13495   0.13941
 Alpha virt. eigenvalues --    0.15529   0.16104   0.16580   0.18479   0.18889
 Alpha virt. eigenvalues --    0.20743   0.21743   0.23582   0.23874   0.24632

 Mulliken atomic charges:
              1
     1  C   -0.099409
     2  O   -0.765701
     3  C    0.655793
     4  N   -0.612702
     5  C    0.084330
     6  C   -0.260486
     7  C   -0.144998
     8  C   -0.101210
     9  C    0.012978
    10  C   -0.210131
    11  C   -0.150464
    12  C    0.329309
    13  C   -0.227097
    14  C   -0.158688
    15  N   -0.986216
    16  C   -0.085230
    17  C    0.065826
    18  C   -0.103626
    19  C   -0.552253
    20  S    0.478578
    21  C   -0.600823
    22  C    0.787562
    23  O   -0.570256
    24  C   -0.130594
    25  N   -0.883652
    26  N    0.093605
    27  N   -0.335965
    28  C   -0.020324
    29  C   -0.079038
    30  C   -0.233396
    31  C   -0.205833
    32  C   -0.063535
    33  C    0.488218
    34  H    0.174477
    35  H    0.177186
    36  H    0.175365
    37  H    0.212683
    38  H    0.213743
    39  H    0.224402
    40  H    0.215499
    41  H    0.240987
    42  H    0.224489
    43  H    0.234974
    44  H    0.226286
    45  H    0.192106
    46  H    0.221839
    47  H    0.238101
    48  H    0.252672
    49  H    0.239983
    50  H    0.247961
    51  H    0.239704
    52  H    0.203491
    53  H    0.205123
    54  H    0.224359
 Sum of Mulliken atomic charges =   0.00000

 Dipole moment (field-independent basis, Debye):
    X=              2.5294    Y=              5.4393    Z=             -0.6700  Tot=              6.0360
 Quadrupole moment (field-independent basis, Debye-Ang):
   XX=           -196.9055   YY=           -197.2631   ZZ=           -188.0326
   XY=            -21.1304   XZ=            -18.2162   YZ=            -11.4347

 1\1\GINC-LQCAPF-6\FOpt\RHF\6-31G\C25H21N5O2S1\LQCAPF-6\26-Aug-2022\0\\
 #p opt hf/6-31G\\Mol16.out\\0,1\C,15.3130695275,-11.432206176,1.929782
 1134\O,15.8056928364,-10.8452459928,0.7111983508\C,14.9452724371,-10.3
 092592861,-0.1851885197\N,13.6557321877,-10.4217213458,0.0455308428\C,
 12.7731695294,-9.9091333811,-0.8190751696\C,13.174738015,-9.2589470523
 ,-1.9619535522\C,14.5433578949,-9.1396621441,-2.2005539854\C,15.474413
 3733,-9.6571033329,-1.3145007732\C,16.9314610994,-9.5030895634,-1.5594
 450118\C,17.4390117956,-8.2815217374,-2.0006697234\C,18.7824907933,-8.

 Normal termination of Gaussian 09 at Fri Aug 26 19:42:28 2022.
