 Gaussian 09, Revision C.01,
 Gaussian 09:  EM64L-G09RevC.01 23-Sep-2011

 ---------------
 #p opt hf/6-31G
 ---------------

 (Enter /opt/gaussian/l101.exe)
 ---------
 Mol11.out
 ---------
 Charge =  0 Multiplicity = 1

 SCF Done:  E(RHF) =  -1701.94904242     A.U. after   17 cycles
 SCF Done:  E(RHF) =  -1701.98701337     A.U. after   15 cycles
 SCF Done:  E(RHF) =  -1701.99964278     A.U. after   16 cycles
 SCF Done:  E(RHF) =  -1702.00152115     A.U. after   16 cycles
 SCF Done:  E(RHF) =  -1702.00248343     A.U. after   14 cycles
 SCF Done:  E(RHF) =  -1702.00197379     A.U. after   14 cycles
 SCF Done:  E(RHF) =  -1702.00287199     A.U. after   15 cycles
 SCF Done:  E(RHF) =  -1702.00319063     A.U. after   14 cycles
 SCF Done:  E(RHF) =  -1702.00325100     A.U. after   13 cycles
 SCF Done:  E(RHF) =  -1702.00326281     A.U. after   12 cycles
 SCF Done:  E(RHF) =  -1702.00605983     A.U. after   16 cycles
 SCF Done:  E(RHF) =  -1702.00626404     A.U. after   15 cycles
 SCF Done:  E(RHF) =  -1702.00629860     A.U. after   12 cycles
 SCF Done:  E(RHF) =  -1702.00631187     A.U. after   12 cycles
 SCF Done:  E(RHF) =  -1702.00631510     A.U. after   12 cycles
 SCF Done:  E(RHF) =  -1702.00631660     A.U. after   12 cycles
 SCF Done:  E(RHF) =  -1702.00631690     A.U. after    9 cycles
 SCF Done:  E(RHF) =  -1702.00631701     A.U. after    9 cycles
 SCF Done:  E(RHF) =  -1702.00631707     A.U. after    9 cycles
 SCF Done:  E(RHF) =  -1702.00631708     A.U. after    8 cycles
 Optimization completed.
    -- Stationary point found.

                         Standard orientation:
 ---------------------------------------------------------------------
 Center     Atomic      Atomic             Coordinates (Angstroms)
 Number     Number       Type             X           Y           Z
 ---------------------------------------------------------------------
      1          8           0        1.208117   -1.453248   -0.069625
      2          6           0        1.334482   -0.423970   -0.712652
      3          6           0        2.710719    0.026088   -1.188370
      4          7           0        3.728659   -0.925144   -0.867912
      5          7           0        4.164277   -1.790603   -1.828158
      6          7           0        5.029382   -2.572458   -1.331883
      7          6           0        5.200984   -2.260341    0.007572
      8          6           0        6.035404   -2.824912    0.971265
      9          6           0        5.988471   -2.289851    2.235160
     10          6           0        5.124617   -1.213829    2.538435
     11          6           0        4.297051   -0.653566    1.594830
     12          6           0        4.354234   -1.201761    0.311001
     13          7           0        0.267870    0.377643   -1.043339
     14          6           0        0.442054    1.685331   -1.681214
     15          6           0        0.871735    2.798572   -0.754126
     16          6           0        1.230281    4.106324   -1.267491
     17          6           0        1.580130    4.986330   -0.317810
     18         16           0        1.498050    4.266146    1.315484
     19          6           0        0.963103    2.722675    0.585353
     20          6           0       -1.070589   -0.062402   -0.772299
     21          6           0       -1.978698    0.802996   -0.177134
     22          6           0       -3.288506    0.401133    0.036630
     23          6           0       -3.707057   -0.869085   -0.335141
     24          6           0       -2.794839   -1.725910   -0.943550
     25          6           0       -1.488575   -1.331923   -1.159751
     26          6           0       -5.104582   -1.352767   -0.143240
     27          8           0       -5.576753   -2.229412   -0.864033
     28          7           0       -5.816860   -0.794607    0.869391
     29          6           0       -7.171202   -1.171668    1.146220
     30          6           0       -8.267346   -0.652727    0.267502
     31          6           0       -8.102221   -0.109255    1.662282
     32          1           0        2.712372    0.125437   -2.263757
     33          1           0        2.960144    0.987373   -0.760851
     34          1           0        6.680358   -3.642745    0.720776
     35          1           0        6.610312   -2.690832    3.010857
     36          1           0        5.113511   -0.828222    3.539444
     37          1           0        3.636013    0.153006    1.840321
     38          1           0        1.152392    1.607137   -2.495264
     39          1           0       -0.502634    1.943316   -2.139022
     40          1           0        1.217068    4.348110   -2.311618
     41          1           0        1.883390    6.001776   -0.437256
     42          1           0        0.748951    1.887163    1.213398
     43          1           0       -1.673358    1.785857    0.119829
     44          1           0       -3.977061    1.099418    0.471322
     45          1           0       -3.124995   -2.696453   -1.253080
     46          1           0       -0.794596   -2.008793   -1.610637
     47          1           0       -5.342659   -0.252320    1.550401
     48          1           0       -7.285736   -2.166662    1.531161
     49          1           0       -7.982528   -0.025410   -0.553102
     50          1           0       -9.091913   -1.304479    0.056878
     51          1           0       -8.813097   -0.383365    2.416996
     52          1           0       -7.716854    0.886929    1.767209
 ---------------------------------------------------------------------

 The electronic state is 1-A.
 Alpha  occ. eigenvalues --  -91.99268 -20.55661 -20.52787 -15.66584 -15.65700
 Alpha  occ. eigenvalues --  -15.62939 -15.61410 -15.59156 -11.39488 -11.36893
 Alpha  occ. eigenvalues --  -11.31720 -11.31593 -11.30965 -11.30161 -11.29722
 Alpha  occ. eigenvalues --  -11.29700 -11.28569 -11.27659 -11.27238 -11.26724
 Alpha  occ. eigenvalues --  -11.26558 -11.26152 -11.25759 -11.25615 -11.25469
 Alpha  occ. eigenvalues --  -11.25434 -11.25324 -11.25015 -11.24266 -11.23777
 Alpha  occ. eigenvalues --  -11.23035  -9.01047  -6.69177  -6.69043  -6.68781
 Alpha  occ. eigenvalues --   -1.47712  -1.42963  -1.39710  -1.29496  -1.25295
 Alpha  occ. eigenvalues --   -1.25209  -1.20545  -1.18080  -1.17900  -1.13878
 Alpha  occ. eigenvalues --   -1.07422  -1.06663  -1.05810  -1.04451  -1.03796
 Alpha  occ. eigenvalues --   -1.02015  -1.01573  -0.95757  -0.91024  -0.89042
 Alpha  occ. eigenvalues --   -0.86719  -0.85461  -0.84768  -0.84148  -0.82230
 Alpha  occ. eigenvalues --   -0.80884  -0.79072  -0.77992  -0.76458  -0.74918
 Alpha  occ. eigenvalues --   -0.74083  -0.72876  -0.72577  -0.71214  -0.70492
 Alpha  occ. eigenvalues --   -0.69292  -0.67205  -0.65843  -0.65662  -0.64982
 Alpha  occ. eigenvalues --   -0.64526  -0.63858  -0.62882  -0.62431  -0.61673
 Alpha  occ. eigenvalues --   -0.61280  -0.60873  -0.60508  -0.59767  -0.58819
 Alpha  occ. eigenvalues --   -0.57824  -0.55602  -0.55425  -0.53883  -0.53801
 Alpha  occ. eigenvalues --   -0.53519  -0.53474  -0.53106  -0.52335  -0.51858
 Alpha  occ. eigenvalues --   -0.51202  -0.50782  -0.49660  -0.48725  -0.45455
 Alpha  occ. eigenvalues --   -0.45144  -0.43716  -0.43423  -0.42483  -0.42419
 Alpha  occ. eigenvalues --   -0.41742  -0.38158  -0.37120  -0.36199  -0.35502
 Alpha  occ. eigenvalues --   -0.33912  -0.33760  -0.32295
 Alpha virt. eigenvalues --    0.09193   0.09660   0.10067   0.12444   0.15541
 Alpha virt. eigenvalues --    0.15832   0.16480   0.18283   0.20294   0.21041
 Alpha virt. eigenvalues --    0.22021   0.22468   0.23101   0.23240   0.24192

 Mulliken atomic charges:
              1
     1  O   -0.564936
     2  C    0.786703
     3  C   -0.131093
     4  N   -0.884333
     5  N    0.095958
     6  N   -0.333305
     7  C   -0.020174
     8  C   -0.077964
     9  C   -0.233573
    10  C   -0.204620
    11  C   -0.066642
    12  C    0.488066
    13  N   -0.987802
    14  C   -0.085985
    15  C    0.066248
    16  C   -0.103587
    17  C   -0.551622
    18  S    0.480914
    19  C   -0.603664
    20  C    0.340289
    21  C   -0.223587
    22  C   -0.180627
    23  C   -0.125392
    24  C   -0.179876
    25  C   -0.151566
    26  C    0.784049
    27  O   -0.607470
    28  N   -0.911391
    29  C    0.075378
    30  C   -0.305466
    31  C   -0.366033
    32  H    0.250542
    33  H    0.239527
    34  H    0.241481
    35  H    0.204813
    36  H    0.205614
    37  H    0.222433
    38  H    0.196504
    39  H    0.227149
    40  H    0.224154
    41  H    0.240232
    42  H    0.250026
    43  H    0.230924
    44  H    0.218431
    45  H    0.265888
    46  H    0.246840
    47  H    0.377875
    48  H    0.205046
    49  H    0.190811
    50  H    0.185752
    51  H    0.183466
    52  H    0.175595
 Sum of Mulliken atomic charges =   0.00000

 Dipole moment (field-independent basis, Debye):
    X=             -0.6061    Y=              8.7044    Z=              2.7109  Tot=              9.1369
 Quadrupole moment (field-independent basis, Debye-Ang):
   XX=           -197.7249   YY=           -193.7918   ZZ=           -183.8009
   XY=             -1.0362   XZ=             -3.1918   YZ=            -19.8645

 1\1\GINC-LQCAPF-6\FOpt\RHF\6-31G\C23H21N5O2S1\LQCAPF-6\26-Aug-2022\0\\
 #p opt hf/6-31G\\Mol11.out\\0,1\O,21.073154011,-6.83033933,-0.73968257
 67\C,21.5804881962,-7.7824351802,-0.1696043643\C,23.0342440177,-7.7262
 979523,0.284633256\N,23.6255399258,-6.4478633623,0.0402727375\N,23.730
 1576609,-5.5507394409,1.0625628106\N,24.2383553442,-4.4735594971,0.629
 6548589\C,24.4882082667,-4.6082697438,-0.72696991\C,25.0391869766,-3.7
 119034218,-1.641655985\C,25.169101494,-4.1389062186,-2.9403919815\C,24
 .7555807067,-5.4337335131,-3.325702221\C,24.2090272835,-6.3222099623,-

 Normal termination of Gaussian 09 at Fri Aug 26 16:10:19 2022.
