 Gaussian 09, Revision C.01,
 Gaussian 09:  EM64L-G09RevC.01 23-Sep-2011

 ---------------
 #p opt hf/6-31G
 ---------------

 (Enter /opt/gaussian/l101.exe)
 ---------
 Mol15.out
 ---------
 Charge =  0 Multiplicity = 1

 SCF Done:  E(RHF) =  -1663.84612480     A.U. after   17 cycles
 SCF Done:  E(RHF) =  -1663.88371059     A.U. after   15 cycles
 SCF Done:  E(RHF) =  -1663.89548600     A.U. after   15 cycles
 SCF Done:  E(RHF) =  -1663.89636976     A.U. after   16 cycles
 SCF Done:  E(RHF) =  -1663.89700035     A.U. after   16 cycles
 SCF Done:  E(RHF) =  -1663.89652788     A.U. after   15 cycles
 SCF Done:  E(RHF) =  -1663.89820608     A.U. after   14 cycles
 SCF Done:  E(RHF) =  -1663.89847589     A.U. after   13 cycles
 SCF Done:  E(RHF) =  -1663.89852811     A.U. after   12 cycles
 SCF Done:  E(RHF) =  -1663.89854275     A.U. after   13 cycles
 SCF Done:  E(RHF) =  -1663.89854939     A.U. after   12 cycles
 SCF Done:  E(RHF) =  -1663.89855351     A.U. after   12 cycles
 SCF Done:  E(RHF) =  -1663.89855582     A.U. after   10 cycles
 SCF Done:  E(RHF) =  -1663.89855643     A.U. after   10 cycles
 SCF Done:  E(RHF) =  -1663.89855671     A.U. after    9 cycles
 SCF Done:  E(RHF) =  -1663.89855685     A.U. after    8 cycles
 SCF Done:  E(RHF) =  -1663.89855688     A.U. after    8 cycles
 Optimization completed.
    -- Stationary point found.

                         Standard orientation:
 ---------------------------------------------------------------------
 Center     Atomic      Atomic             Coordinates (Angstroms)
 Number     Number       Type             X           Y           Z
 ---------------------------------------------------------------------
      1          8           0        0.927697   -1.403220   -0.016950
      2          6           0        1.104183   -0.381542   -0.661583
      3          6           0        2.490354   -0.036647   -1.193961
      4          7           0        3.442383   -1.071773   -0.932736
      5          7           0        3.786327   -1.934321   -1.931214
      6          7           0        4.608761   -2.790519   -1.486602
      7          6           0        4.842639   -2.533296   -0.145187
      8          6           0        5.664210   -3.184434    0.774225
      9          6           0        5.693761   -2.687070    2.053760
     10          6           0        4.917025   -1.563695    2.416293
     11          6           0        4.102606   -0.918334    1.517016
     12          6           0        4.082258   -1.428337    0.216281
     13          7           0        0.092290    0.501797   -0.943558
     14          6           0        0.336410    1.789400   -1.597463
     15          6           0        0.901073    2.867764   -0.701656
     16          6           0        1.341770    4.138659   -1.243187
     17          6           0        1.807535    4.992087   -0.319450
     18         16           0        1.743848    4.290026    1.322695
     19          6           0        1.049151    2.792008    0.632576
     20          6           0       -1.265640    0.167443   -0.611909
     21          6           0       -2.067555    1.083662    0.052192
     22          6           0       -3.395146    0.785630    0.320462
     23          6           0       -3.946671   -0.433501   -0.056967
     24          6           0       -3.131519   -1.343192   -0.730374
     25          6           0       -1.810162   -1.049614   -1.006845
     26          6           0       -5.360559   -0.778109    0.229461
     27          6           0       -6.079636   -0.198301    1.274149
     28          6           0       -7.399068   -0.567767    1.475198
     29          6           0       -7.976188   -1.512929    0.640430
     30          6           0       -7.192395   -2.056374   -0.363458
     31          7           0       -5.927790   -1.696962   -0.557905
     32          1           0        2.454412    0.079745   -2.266826
     33          1           0        2.834986    0.894586   -0.765862
     34          1           0        6.241891   -4.037022    0.479258
     35          1           0        6.309119   -3.154339    2.796916
     36          1           0        4.962863   -1.210313    3.428167
     37          1           0        3.505491   -0.077728    1.807484
     38          1           0        0.994075    1.655531   -2.448108
     39          1           0       -0.608629    2.120608   -2.004457
     40          1           0        1.299032    4.374767   -2.287852
     41          1           0        2.187513    5.978248   -0.462579
     42          1           0        0.795788    1.980758    1.277511
     43          1           0       -1.667934    2.029287    0.359265
     44          1           0       -3.995473    1.524820    0.812967
     45          1           0       -3.548001   -2.278091   -1.042154
     46          1           0       -1.198908   -1.769617   -1.509108
     47          1           0       -5.615125    0.508209    1.930242
     48          1           0       -7.963681   -0.131715    2.276352
     49          1           0       -8.993432   -1.823773    0.767328
     50          1           0       -7.581547   -2.797220   -1.031947
 ---------------------------------------------------------------------

 The electronic state is 1-A.
 Alpha  occ. eigenvalues --  -91.98759 -20.54832 -15.66198 -15.65299 -15.62053
 Alpha  occ. eigenvalues --  -15.61015 -15.57388 -11.38716 -11.31010 -11.31005
 Alpha  occ. eigenvalues --  -11.29673 -11.29515 -11.29419 -11.29292 -11.29160
 Alpha  occ. eigenvalues --  -11.28202 -11.27991 -11.26750 -11.26537 -11.26350
 Alpha  occ. eigenvalues --  -11.25229 -11.25182 -11.25089 -11.25082 -11.25018
 Alpha  occ. eigenvalues --  -11.24879 -11.24775 -11.24536 -11.23929 -11.23892
 Alpha  occ. eigenvalues --  -11.23676  -9.00539  -6.68669  -6.68536  -6.68273
 Alpha  occ. eigenvalues --   -1.47313  -1.42114  -1.28613  -1.28378  -1.24751
 Alpha  occ. eigenvalues --   -1.19967  -1.17596  -1.16752  -1.10051  -1.08067
 Alpha  occ. eigenvalues --   -1.06279  -1.05438  -1.04844  -1.02987  -1.02316
 Alpha  occ. eigenvalues --   -1.01444  -0.99932  -0.95081  -0.89352  -0.88639
 Alpha  occ. eigenvalues --   -0.87647  -0.85036  -0.84446  -0.83660  -0.81073
 Alpha  occ. eigenvalues --   -0.80333  -0.77534  -0.75881  -0.73861  -0.73433
 Alpha  occ. eigenvalues --   -0.72373  -0.72122  -0.70738  -0.69296  -0.67977
 Alpha  occ. eigenvalues --   -0.67105  -0.65927  -0.65347  -0.64046  -0.63307
 Alpha  occ. eigenvalues --   -0.63218  -0.62960  -0.62043  -0.61624  -0.60711
 Alpha  occ. eigenvalues --   -0.60295  -0.59614  -0.59281  -0.58271  -0.56932
 Alpha  occ. eigenvalues --   -0.55927  -0.54728  -0.54086  -0.53474  -0.53151
 Alpha  occ. eigenvalues --   -0.52917  -0.52632  -0.51317  -0.51029  -0.50405
 Alpha  occ. eigenvalues --   -0.49879  -0.49278  -0.48201  -0.44542  -0.42860
 Alpha  occ. eigenvalues --   -0.42117  -0.42064  -0.40619  -0.38780  -0.37157
 Alpha  occ. eigenvalues --   -0.36570  -0.35538  -0.34258  -0.33525  -0.31906
 Alpha  occ. eigenvalues --   -0.30483
 Alpha virt. eigenvalues --    0.08853   0.10035   0.10584   0.11920   0.14091
 Alpha virt. eigenvalues --    0.15747   0.16170   0.16590   0.18834   0.19147
 Alpha virt. eigenvalues --    0.20761   0.21641   0.23423   0.23615   0.23758

 Mulliken atomic charges:
              1
     1  O   -0.567935
     2  C    0.786800
     3  C   -0.130734
     4  N   -0.883779
     5  N    0.094727
     6  N   -0.335426
     7  C   -0.020202
     8  C   -0.078777
     9  C   -0.233481
    10  C   -0.205635
    11  C   -0.064002
    12  C    0.488308
    13  N   -0.985439
    14  C   -0.083554
    15  C    0.067534
    16  C   -0.103767
    17  C   -0.551980
    18  S    0.477607
    19  C   -0.602848
    20  C    0.330285
    21  C   -0.221463
    22  C   -0.197458
    23  C   -0.028433
    24  C   -0.185744
    25  C   -0.151135
    26  C    0.216173
    27  C   -0.188948
    28  C   -0.166009
    29  C   -0.241744
    30  C    0.073682
    31  N   -0.587293
    32  H    0.248975
    33  H    0.238938
    34  H    0.240037
    35  H    0.203522
    36  H    0.204787
    37  H    0.223247
    38  H    0.193026
    39  H    0.227089
    40  H    0.222709
    41  H    0.238447
    42  H    0.250774
    43  H    0.225312
    44  H    0.211059
    45  H    0.254560
    46  H    0.238438
    47  H    0.219587
    48  H    0.215105
    49  H    0.214622
    50  H    0.210440
 Sum of Mulliken atomic charges =   0.00000

 Dipole moment (field-independent basis, Debye):
    X=             -3.1808    Y=              6.7874    Z=              1.7957  Tot=              7.7078
 Quadrupole moment (field-independent basis, Debye-Ang):
   XX=           -166.3122   YY=           -187.6214   ZZ=           -184.5080
   XY=             12.0317   XZ=              2.5097   YZ=            -15.4814

 1\1\GINC-LQCAPF-6\FOpt\RHF\6-31G\C24H19N5O1S1\LQCAPF-6\26-Aug-2022\0\\
 #p opt hf/6-31G\\Mol15.out\\0,1\O,21.2727129138,-6.8739785156,-0.94419
 85157\C,21.730490497,-7.7944250947,-0.2856062533\C,23.1480510248,-7.71
 38559091,0.2692626197\N,23.7588964438,-6.4468784899,0.0090295274\N,23.
 8186397311,-5.514423279,1.0021065043\N,24.3610277478,-4.4577932975,0.5
 588211999\C,24.6817394702,-4.6444868097,-0.7763001308\C,25.2911109744,
 -3.7874685487,-1.6919771007\C,25.485897051,-4.2632313782,-2.9652254849
 \C,25.078596655,-5.5675239902,-3.3252887771\C,24.4746943919,-6.4170624

 Normal termination of Gaussian 09 at Fri Aug 26 19:11:46 2022.
