 Gaussian 09, Revision C.01,
 Gaussian 09:  EM64L-G09RevC.01 23-Sep-2011

 ---------------
 #p opt hf/6-31G
 ---------------

 (Enter /opt/gaussian/l101.exe)
 ---------
 Mol10.out
 ---------
 Charge =  0 Multiplicity = 1

 SCF Done:  E(RHF) =  -1586.11488524     A.U. after   17 cycles
 SCF Done:  E(RHF) =  -1586.15020706     A.U. after   15 cycles
 SCF Done:  E(RHF) =  -1586.16044388     A.U. after   15 cycles
 SCF Done:  E(RHF) =  -1586.16086577     A.U. after   17 cycles
 SCF Done:  E(RHF) =  -1586.16174672     A.U. after   16 cycles
 SCF Done:  E(RHF) =  -1586.16283997     A.U. after   14 cycles
 SCF Done:  E(RHF) =  -1586.16299751     A.U. after   14 cycles
 SCF Done:  E(RHF) =  -1586.16313154     A.U. after   14 cycles
 SCF Done:  E(RHF) =  -1586.16320108     A.U. after   14 cycles
 SCF Done:  E(RHF) =  -1586.16321038     A.U. after   12 cycles
 SCF Done:  E(RHF) =  -1586.16321795     A.U. after   12 cycles
 SCF Done:  E(RHF) =  -1586.16322188     A.U. after   12 cycles
 SCF Done:  E(RHF) =  -1586.16322330     A.U. after   12 cycles
 SCF Done:  E(RHF) =  -1586.16322391     A.U. after   10 cycles
 SCF Done:  E(RHF) =  -1586.16322414     A.U. after   10 cycles
 SCF Done:  E(RHF) =  -1586.16322423     A.U. after   10 cycles
 Optimization completed.
    -- Stationary point found.

                         Standard orientation:
 ---------------------------------------------------------------------
 Center     Atomic      Atomic             Coordinates (Angstroms)
 Number     Number       Type             X           Y           Z
 ---------------------------------------------------------------------
      1          7           0        6.834920   -1.100492    0.763934
      2          6           0        5.784871   -1.937145    0.578463
      3          8           0        5.920980   -3.154888    0.678437
      4          6           0        4.468068   -1.333636    0.232343
      5          6           0        3.507977   -2.154993   -0.350679
      6          6           0        2.267889   -1.659327   -0.704422
      7          6           0        1.954899   -0.325603   -0.457607
      8          6           0        2.900181    0.494593    0.146398
      9          6           0        4.147487   -0.006473    0.483171
     10          7           0        0.693667    0.220979   -0.865293
     11          6           0        0.697990    1.520552   -1.543147
     12          6           0        0.294573    2.694415   -0.681483
     13          6           0        0.090743    4.010825   -1.253918
     14          6           0       -0.254712    4.946279   -0.357023
     15         16           0       -0.361749    4.272970    1.294638
     16          6           0        0.093409    2.668143    0.647931
     17          6           0       -0.472390   -0.466766   -0.619547
     18          8           0       -0.506764   -1.484109    0.052553
     19          6           0       -1.750364    0.099022   -1.227875
     20          7           0       -2.878116   -0.748040   -0.995157
     21          7           0       -3.309043   -1.577857   -1.988892
     22          7           0       -4.286753   -2.266687   -1.570206
     23          6           0       -4.545995   -1.924389   -0.252416
     24          6           0       -5.514072   -2.394929    0.633739
     25          6           0       -5.527890   -1.853234    1.895514
     26          6           0       -4.593350   -0.863067    2.272857
     27          6           0       -3.634315   -0.396007    1.406199
     28          6           0       -3.630363   -0.949694    0.123469
     29          1           0        6.801270   -0.131827    0.570769
     30          1           0        7.706519   -1.502358    1.015525
     31          1           0        3.748653   -3.183616   -0.525410
     32          1           0        1.542350   -2.307527   -1.146180
     33          1           0        2.665627    1.515441    0.369803
     34          1           0        4.842696    0.646054    0.974467
     35          1           0        1.698106    1.678478   -1.921646
     36          1           0        0.056464    1.482966   -2.414810
     37          1           0        0.204854    4.217767   -2.299406
     38          1           0       -0.459986    5.979211   -0.525219
     39          1           0        0.185351    1.837676    1.311540
     40          1           0       -1.946562    1.087195   -0.835088
     41          1           0       -1.644389    0.177624   -2.299606
     42          1           0       -6.210632   -3.149263    0.328229
     43          1           0       -6.252227   -2.183773    2.613305
     44          1           0       -4.633264   -0.470196    3.270272
     45          1           0       -2.921103    0.343890    1.708824
 ---------------------------------------------------------------------

 The electronic state is 1-A.
 Alpha  occ. eigenvalues --  -91.99337 -20.55817 -20.52959 -15.66598 -15.65717
 Alpha  occ. eigenvalues --  -15.63176 -15.61432 -15.58869 -11.39627 -11.37559
 Alpha  occ. eigenvalues --  -11.31868 -11.31668 -11.31265 -11.30234 -11.29801
 Alpha  occ. eigenvalues --  -11.29693 -11.28649 -11.27328 -11.26867 -11.26714
 Alpha  occ. eigenvalues --  -11.26311 -11.25906 -11.25575 -11.25459 -11.25429
 Alpha  occ. eigenvalues --  -11.25405 -11.25058 -11.24232  -9.01115  -6.69244
 Alpha  occ. eigenvalues --   -6.69110  -6.68848  -1.47724  -1.43131  -1.39917
 Alpha  occ. eigenvalues --   -1.29684  -1.25236  -1.22564  -1.20626  -1.18040
 Alpha  occ. eigenvalues --   -1.17858  -1.07629  -1.06716  -1.05852  -1.04598
 Alpha  occ. eigenvalues --   -1.03900  -1.02084  -1.01642  -0.95866  -0.90766
 Alpha  occ. eigenvalues --   -0.89012  -0.86318  -0.85337  -0.83938  -0.81087
 Alpha  occ. eigenvalues --   -0.80736  -0.78375  -0.76586  -0.76132  -0.74231
 Alpha  occ. eigenvalues --   -0.72971  -0.72594  -0.71499  -0.70887  -0.68503
 Alpha  occ. eigenvalues --   -0.66799  -0.65716  -0.65194  -0.64641  -0.63957
 Alpha  occ. eigenvalues --   -0.62943  -0.62441  -0.61741  -0.61348  -0.60968
 Alpha  occ. eigenvalues --   -0.60508  -0.59770  -0.58485  -0.57576  -0.55641
 Alpha  occ. eigenvalues --   -0.54571  -0.53853  -0.53598  -0.53556  -0.53229
 Alpha  occ. eigenvalues --   -0.52038  -0.51250  -0.50772  -0.49643  -0.48785
 Alpha  occ. eigenvalues --   -0.45265  -0.43511  -0.42802  -0.42751  -0.42493
 Alpha  occ. eigenvalues --   -0.40937  -0.37196  -0.36308  -0.35631  -0.33904
 Alpha  occ. eigenvalues --   -0.33808  -0.32274
 Alpha virt. eigenvalues --    0.08814   0.09669   0.09996   0.12383   0.15535
 Alpha virt. eigenvalues --    0.15798   0.16398   0.18185   0.20285   0.20893
 Alpha virt. eigenvalues --    0.21232   0.22890   0.23258   0.23533   0.24140

 Mulliken atomic charges:
              1
     1  N   -0.943736
     2  C    0.758862
     3  O   -0.605632
     4  C   -0.130155
     5  C   -0.180854
     6  C   -0.152220
     7  C    0.347449
     8  C   -0.229752
     9  C   -0.172125
    10  N   -0.990555
    11  C   -0.087504
    12  C    0.064466
    13  C   -0.103793
    14  C   -0.551987
    15  S    0.483063
    16  C   -0.602348
    17  C    0.787299
    18  O   -0.563063
    19  C   -0.130505
    20  N   -0.885537
    21  N    0.094774
    22  N   -0.333006
    23  C   -0.020520
    24  C   -0.077866
    25  C   -0.233411
    26  C   -0.204515
    27  C   -0.065769
    28  C    0.488861
    29  H    0.378538
    30  H    0.391852
    31  H    0.269938
    32  H    0.251649
    33  H    0.231562
    34  H    0.213145
    35  H    0.224954
    36  H    0.196985
    37  H    0.223520
    38  H    0.240281
    39  H    0.251834
    40  H    0.240203
    41  H    0.250127
    42  H    0.241486
    43  H    0.205088
    44  H    0.206152
    45  H    0.222763
 Sum of Mulliken atomic charges =   0.00000

 Dipole moment (field-independent basis, Debye):
    X=              1.9652    Y=             10.0093    Z=             -0.4401  Tot=             10.2099
 Quadrupole moment (field-independent basis, Debye-Ang):
   XX=           -165.4419   YY=           -184.7413   ZZ=           -169.6040
   XY=             18.4574   XZ=            -17.7590   YZ=             -9.8342

 1\1\GINC-LQCAPF-6\FOpt\RHF\6-31G\C20H17N5O2S1\LQCAPF-6\26-Aug-2022\0\\
 #p opt hf/6-31G\\Mol10.out\\0,1\N,13.744531411,-9.9850486823,-0.427137
 9622\C,14.3747803781,-8.8013462414,-0.6236757642\O,13.7676007532,-7.73
 70787826,-0.5232567676\C,15.8198347878,-8.8345298464,-0.982438945\C,16
 .370065177,-7.7023980945,-1.5756010306\C,17.70184978,-7.6670587741,-1.
 9413038916\C,18.5204678478,-8.7660110926,-1.6966254294\C,17.9835550891
 ,-9.8911054772,-1.0826304995\C,16.642853024,-9.9244299937,-0.733828989
 6\N,19.8913838415,-8.7692707623,-2.1164418625\C,20.3970180044,-9.96704

 Normal termination of Gaussian 09 at Fri Aug 26 15:21:26 2022.
