 Gaussian 09, Revision C.01,
 Gaussian 09:  EM64L-G09RevC.01 23-Sep-2011

 ---------------
 #p opt hf/6-31G
 ---------------

 (Enter /opt/gaussian/l101.exe)
 ---------
 Mol14.out
 ---------
 Charge =  0 Multiplicity = 1

 SCF Done:  E(RHF) =  -1663.83116825     A.U. after   17 cycles
 SCF Done:  E(RHF) =  -1663.86825520     A.U. after   15 cycles
 SCF Done:  E(RHF) =  -1663.87962519     A.U. after   17 cycles
 SCF Done:  E(RHF) =  -1663.88122347     A.U. after   17 cycles
 SCF Done:  E(RHF) =  -1663.88271789     A.U. after   16 cycles
 SCF Done:  E(RHF) =  -1663.88395306     A.U. after   15 cycles
 SCF Done:  E(RHF) =  -1663.88497981     A.U. after   16 cycles
 SCF Done:  E(RHF) =  -1663.88692615     A.U. after   17 cycles
 SCF Done:  E(RHF) =  -1663.88846954     A.U. after   17 cycles
 SCF Done:  E(RHF) =  -1663.88997664     A.U. after   16 cycles
 SCF Done:  E(RHF) =  -1663.89322226     A.U. after   13 cycles
 SCF Done:  E(RHF) =  -1663.89324632     A.U. after   13 cycles
 SCF Done:  E(RHF) =  -1663.89327043     A.U. after   13 cycles
 SCF Done:  E(RHF) =  -1663.89328420     A.U. after   12 cycles
 SCF Done:  E(RHF) =  -1663.89328753     A.U. after   11 cycles
 SCF Done:  E(RHF) =  -1663.89328815     A.U. after    9 cycles
 SCF Done:  E(RHF) =  -1663.89328827     A.U. after    9 cycles
 SCF Done:  E(RHF) =  -1663.89328831     A.U. after    9 cycles
 SCF Done:  E(RHF) =  -1663.89328833     A.U. after    8 cycles
 SCF Done:  E(RHF) =  -1663.89328835     A.U. after    8 cycles
 Optimization completed.
    -- Stationary point found.

                         Standard orientation:
 ---------------------------------------------------------------------
 Center     Atomic      Atomic             Coordinates (Angstroms)
 Number     Number       Type             X           Y           Z
 ---------------------------------------------------------------------
      1          8           0       -0.949984   -1.439834    0.314133
      2          6           0       -1.135966   -0.340839    0.811522
      3          6           0       -2.527821    0.084111    1.262404
      4          7           0       -3.502238   -0.939797    1.047914
      5          7           0       -3.903434   -1.716596    2.094507
      6          7           0       -4.730699   -2.584795    1.684519
      7          6           0       -4.909748   -2.424788    0.319417
      8          6           0       -5.713723   -3.124810   -0.578939
      9          6           0       -5.685586   -2.724428   -1.892393
     10          6           0       -4.870367   -1.648060   -2.307919
     11          6           0       -4.072772   -0.954733   -1.428970
     12          6           0       -4.109922   -1.367248   -0.094628
     13          7           0       -0.123300    0.567405    0.991898
     14          6           0       -0.351359    1.922400    1.499487
     15          6           0       -0.822196    2.919265    0.466287
     16          6           0       -1.261355    4.246163    0.853002
     17          6           0       -1.628183    5.020719   -0.178456
     18         16           0       -1.460941    4.166781   -1.738883
     19          6           0       -0.870311    2.723137   -0.861991
     20          6           0        1.228355    0.183224    0.687642
     21          6           0        2.176903    0.164285    1.700298
     22          6           0        3.491993   -0.170095    1.422928
     23          6           0        3.882764   -0.512710    0.130794
     24          6           0        2.916738   -0.510458   -0.873506
     25          6           0        1.604833   -0.162818   -0.601425
     26          6           0        5.290922   -0.880728   -0.167155
     27          6           0        6.357609   -0.153871    0.359303
     28          6           0        7.654345   -0.532352    0.055612
     29          7           0        7.936276   -1.571972   -0.727199
     30          6           0        6.925408   -2.274340   -1.235656
     31          6           0        5.598863   -1.967493   -0.984103
     32          1           0       -2.523708    0.284597    2.323692
     33          1           0       -2.826722    0.988465    0.749648
     34          1           0       -6.322594   -3.939775   -0.243250
     35          1           0       -6.285782   -3.232467   -2.620999
     36          1           0       -4.873778   -1.368908   -3.343761
     37          1           0       -3.450231   -0.147080   -1.757875
     38          1           0       -1.055391    1.899883    2.321519
     39          1           0        0.582041    2.270771    1.917557
     40          1           0       -1.291077    4.578259    1.871757
     41          1           0       -1.987439    6.024601   -0.156384
     42          1           0       -0.589149    1.854060   -1.410192
     43          1           0        1.885679    0.389852    2.707975
     44          1           0        4.207330   -0.196384    2.221560
     45          1           0        3.193184   -0.763367   -1.878268
     46          1           0        0.874615   -0.184290   -1.383543
     47          1           0        6.183034    0.704053    0.977290
     48          1           0        8.491191    0.011939    0.442537
     49          1           0        7.189222   -3.106939   -1.854750
     50          1           0        4.821727   -2.577991   -1.398266
 ---------------------------------------------------------------------

 The electronic state is 1-A.
 Alpha  occ. eigenvalues --  -91.98861 -20.55286 -15.66535 -15.65641 -15.62474
 Alpha  occ. eigenvalues --  -15.61334 -15.57483 -11.39198 -11.31485 -11.31470
 Alpha  occ. eigenvalues --  -11.30311 -11.29780 -11.29667 -11.29327 -11.28119
 Alpha  occ. eigenvalues --  -11.28104 -11.28056 -11.27884 -11.26914 -11.26887
 Alpha  occ. eigenvalues --  -11.26701 -11.25962 -11.25790 -11.25712 -11.25635
 Alpha  occ. eigenvalues --  -11.25589 -11.25486 -11.25435 -11.25098 -11.25011
 Alpha  occ. eigenvalues --  -11.24272  -9.00643  -6.68775  -6.68641  -6.68377
 Alpha  occ. eigenvalues --   -1.47652  -1.42585  -1.29103  -1.28019  -1.25136
 Alpha  occ. eigenvalues --   -1.20192  -1.18523  -1.17945  -1.11849  -1.06760
 Alpha  occ. eigenvalues --   -1.06077  -1.05615  -1.05099  -1.04318  -1.03195
 Alpha  occ. eigenvalues --   -1.01609  -1.00981  -0.95443  -0.89954  -0.89015
 Alpha  occ. eigenvalues --   -0.87798  -0.85387  -0.85075  -0.84574  -0.81592
 Alpha  occ. eigenvalues --   -0.80760  -0.78227  -0.76143  -0.74257  -0.73812
 Alpha  occ. eigenvalues --   -0.72766  -0.72489  -0.71037  -0.69556  -0.68242
 Alpha  occ. eigenvalues --   -0.66669  -0.66358  -0.65721  -0.65318  -0.64577
 Alpha  occ. eigenvalues --   -0.64095  -0.63302  -0.62410  -0.61904  -0.61475
 Alpha  occ. eigenvalues --   -0.61059  -0.60802  -0.60369  -0.59524  -0.56760
 Alpha  occ. eigenvalues --   -0.55276  -0.55114  -0.53904  -0.53532  -0.53286
 Alpha  occ. eigenvalues --   -0.53113  -0.52827  -0.52669  -0.51936  -0.50940
 Alpha  occ. eigenvalues --   -0.50732  -0.49651  -0.48344  -0.45019  -0.43255
 Alpha  occ. eigenvalues --   -0.42428  -0.42111  -0.40645  -0.39246  -0.36713
 Alpha  occ. eigenvalues --   -0.36023  -0.35710  -0.35428  -0.33882  -0.32977
 Alpha  occ. eigenvalues --   -0.32239
 Alpha virt. eigenvalues --    0.08635   0.09697   0.10550   0.12129   0.12876
 Alpha virt. eigenvalues --    0.15107   0.15591   0.16148   0.17295   0.19114
 Alpha virt. eigenvalues --    0.20329   0.20751   0.22280   0.23218   0.23673

 Mulliken atomic charges:
              1
     1  O   -0.566381
     2  C    0.791389
     3  C   -0.130668
     4  N   -0.883453
     5  N    0.097743
     6  N   -0.334111
     7  C   -0.019576
     8  C   -0.078132
     9  C   -0.233756
    10  C   -0.204639
    11  C   -0.068351
    12  C    0.487828
    13  N   -0.979202
    14  C   -0.076848
    15  C    0.077539
    16  C   -0.106089
    17  C   -0.551001
    18  S    0.478128
    19  C   -0.593778
    20  C    0.310804
    21  C   -0.185046
    22  C   -0.195592
    23  C   -0.027377
    24  C   -0.204966
    25  C   -0.142410
    26  C    0.004518
    27  C   -0.233212
    28  C    0.053538
    29  N   -0.530925
    30  C    0.053101
    31  C   -0.231911
    32  H    0.250840
    33  H    0.236441
    34  H    0.241334
    35  H    0.204614
    36  H    0.205222
    37  H    0.221333
    38  H    0.188507
    39  H    0.219957
    40  H    0.220972
    41  H    0.238406
    42  H    0.237645
    43  H    0.217919
    44  H    0.223304
    45  H    0.223943
    46  H    0.226507
    47  H    0.217895
    48  H    0.210217
    49  H    0.212027
    50  H    0.225755
 Sum of Mulliken atomic charges =   0.00000

 Dipole moment (field-independent basis, Debye):
    X=             -0.7110    Y=              6.7821    Z=             -0.4696  Tot=              6.8354
 Quadrupole moment (field-independent basis, Debye-Ang):
   XX=           -223.0901   YY=           -188.1452   ZZ=           -181.5549
   XY=             -3.1354   XZ=             22.9852   YZ=             23.8399

 1\1\GINC-LQCAPF-6\FOpt\RHF\6-31G\C24H19N5O1S1\LQCAPF-6\26-Aug-2022\0\\
 #p opt hf/6-31G\\Mol14.out\\0,1\O,20.8299791772,-6.8350483935,-0.49326
 67498\C,21.3457942137,-7.8732925718,-0.1114829036\C,22.801495935,-7.90
 02195397,0.3372317983\N,23.413269406,-6.6099786768,0.2672763625\N,23.5
 574064606,-5.8712081646,1.4044556796\N,24.076812375,-4.7510817999,1.11
 85191009\C,24.2945346502,-4.6932882472,-0.2491144418\C,24.8428604688,-
 3.6840727248,-1.0392253905\C,24.9374865372,-3.922728,-2.3884287266\C,2
 4.4924632069,-5.1426592249,-2.9447854088\C,23.9481209169,-6.1414004776

 Normal termination of Gaussian 09 at Fri Aug 26 18:46:19 2022.
