 Gaussian 09, Revision C.01,
 Gaussian 09:  EM64L-G09RevC.01 23-Sep-2011

 ---------------
 #p opt hf/6-31G
 ---------------

 (Enter /opt/gaussian/l101.exe)
 ---------
 Mol19.out
 ---------
 Charge =  0 Multiplicity = 1

 SCF Done:  E(RHF) =  -1641.93147906     A.U. after   17 cycles
 SCF Done:  E(RHF) =  -1641.97031073     A.U. after   15 cycles
 SCF Done:  E(RHF) =  -1641.98291362     A.U. after   17 cycles
 SCF Done:  E(RHF) =  -1641.98624937     A.U. after   17 cycles
 SCF Done:  E(RHF) =  -1641.98854749     A.U. after   16 cycles
 SCF Done:  E(RHF) =  -1641.98983943     A.U. after   16 cycles
 SCF Done:  E(RHF) =  -1641.99155172     A.U. after   16 cycles
 SCF Done:  E(RHF) =  -1641.99197649     A.U. after   15 cycles
 SCF Done:  E(RHF) =  -1641.99241195     A.U. after   14 cycles
 SCF Done:  E(RHF) =  -1641.99243496     A.U. after   13 cycles
 SCF Done:  E(RHF) =  -1641.99247469     A.U. after   12 cycles
 SCF Done:  E(RHF) =  -1641.99250486     A.U. after   12 cycles
 SCF Done:  E(RHF) =  -1641.99251265     A.U. after   12 cycles
 SCF Done:  E(RHF) =  -1641.99251406     A.U. after   12 cycles
 SCF Done:  E(RHF) =  -1641.99251526     A.U. after   11 cycles
 SCF Done:  E(RHF) =  -1641.99251592     A.U. after   10 cycles
 SCF Done:  E(RHF) =  -1641.99251611     A.U. after   10 cycles
 SCF Done:  E(RHF) =  -1641.99251616     A.U. after    9 cycles
 SCF Done:  E(RHF) =  -1641.99251617     A.U. after    8 cycles
 Optimization completed.
    -- Stationary point found.

                         Standard orientation:
 ---------------------------------------------------------------------
 Center     Atomic      Atomic             Coordinates (Angstroms)
 Number     Number       Type             X           Y           Z
 ---------------------------------------------------------------------
      1          8           0       -0.780066   -1.411100    0.051000
      2          6           0       -0.908656   -0.359989    0.659204
      3          6           0       -2.278359    0.068110    1.173430
      4          7           0       -3.273062   -0.937999    0.962502
      5          7           0       -3.650826   -1.734838    2.002636
      6          7           0       -4.509621   -2.576515    1.601123
      7          6           0       -4.735474   -2.376391    0.248682
      8          6           0       -5.585957   -3.037098   -0.637092
      9          6           0       -5.597295   -2.603140   -1.939720
     10          6           0       -4.774354   -1.533180   -2.357832
     11          6           0       -3.931377   -0.878973   -1.491940
     12          6           0       -3.929926   -1.323842   -0.167349
     13          7           0        0.143992    0.482705    0.914088
     14          6           0       -0.036919    1.796153    1.536244
     15          6           0       -0.554831    2.877781    0.616365
     16          6           0       -0.935285    4.179682    1.129116
     17          6           0       -1.364316    5.031978    0.186683
     18         16           0       -1.337713    4.290037   -1.438707
     19          6           0       -0.710393    2.778126   -0.715480
     20          6           0        1.483655    0.077843    0.584705
     21          6           0        2.324668    0.938008   -0.106803
     22          6           0        3.632939    0.570623   -0.380572
     23          6           0        4.135225   -0.662012    0.027186
     24          6           0        3.276396   -1.517715    0.718498
     25          6           0        1.971351   -1.156398    0.997228
     26          6           0        5.521758   -1.055577   -0.258042
     27          6           0        6.635626   -0.257541   -0.318748
     28          7           0        7.681752   -1.061186   -0.610928
     29          7           0        7.308297   -2.351125   -0.746326
     30          6           0        6.013451   -2.362371   -0.534958
     31          1           0       -2.237920    0.235814    2.239126
     32          1           0       -2.583471    0.990954    0.699455
     33          1           0       -6.198498   -3.848748   -0.299994
     34          1           0       -6.233475   -3.080271   -2.658664
     35          1           0       -4.807116   -1.229238   -3.386120
     36          1           0       -3.299049   -0.080726   -1.824251
     37          1           0       -0.695608    1.714847    2.392703
     38          1           0        0.924790    2.092653    1.930863
     39          1           0       -0.879091    4.437596    2.167980
     40          1           0       -1.698576    6.037472    0.307700
     41          1           0       -0.497238    1.941334   -1.342080
     42          1           0        1.963309    1.888058   -0.446467
     43          1           0        4.255356    1.240752   -0.941580
     44          1           0        3.636426   -2.468176    1.060846
     45          1           0        1.331623   -1.835555    1.520503
     46          1           0        6.751330    0.789981   -0.159680
     47          1           0        5.463334   -3.272639   -0.600154
     48          1           0        8.632528   -0.817653   -0.723363
 ---------------------------------------------------------------------

 The electronic state is 1-A.
 Alpha  occ. eigenvalues --  -91.98880 -20.54963 -15.66306 -15.65411 -15.64598
 Alpha  occ. eigenvalues --  -15.62230 -15.61133 -15.60505 -11.38862 -11.31167
 Alpha  occ. eigenvalues --  -11.31141 -11.29797 -11.29410 -11.29390 -11.29289
 Alpha  occ. eigenvalues --  -11.28986 -11.28127 -11.26878 -11.26445 -11.26234
 Alpha  occ. eigenvalues --  -11.26088 -11.25305 -11.25166 -11.25161 -11.24931
 Alpha  occ. eigenvalues --  -11.24648 -11.24492 -11.24464 -11.24311 -11.24006
 Alpha  occ. eigenvalues --   -9.00660  -6.68790  -6.68656  -6.68394  -1.47422
 Alpha  occ. eigenvalues --   -1.42248  -1.40341  -1.28717  -1.24863  -1.20108
 Alpha  occ. eigenvalues --   -1.17695  -1.17331  -1.12292  -1.09419  -1.06420
 Alpha  occ. eigenvalues --   -1.05682  -1.05172  -1.03374  -1.02550  -1.01580
 Alpha  occ. eigenvalues --   -1.00238  -0.95221  -0.88922  -0.88531  -0.85622
 Alpha  occ. eigenvalues --   -0.84949  -0.83310  -0.82107  -0.80484  -0.79863
 Alpha  occ. eigenvalues --   -0.77627  -0.76020  -0.75650  -0.73577  -0.72512
 Alpha  occ. eigenvalues --   -0.72231  -0.71096  -0.69601  -0.66651  -0.65975
 Alpha  occ. eigenvalues --   -0.65453  -0.64332  -0.64063  -0.63373  -0.62475
 Alpha  occ. eigenvalues --   -0.62224  -0.61804  -0.61465  -0.60768  -0.60155
 Alpha  occ. eigenvalues --   -0.59839  -0.59341  -0.57901  -0.56812  -0.54796
 Alpha  occ. eigenvalues --   -0.53574  -0.53352  -0.53175  -0.52986  -0.52463
 Alpha  occ. eigenvalues --   -0.51810  -0.50573  -0.50416  -0.49372  -0.48325
 Alpha  occ. eigenvalues --   -0.45299  -0.44658  -0.42996  -0.42388  -0.42231
 Alpha  occ. eigenvalues --   -0.38369  -0.36864  -0.36656  -0.35640  -0.34774
 Alpha  occ. eigenvalues --   -0.33616  -0.31993  -0.30130
 Alpha virt. eigenvalues --    0.09938   0.10458   0.11365   0.13216   0.15830
 Alpha virt. eigenvalues --    0.16231   0.16510   0.17573   0.18676   0.20612
 Alpha virt. eigenvalues --    0.21485   0.22425   0.23351   0.23607   0.24270

 Mulliken atomic charges:
              1
     1  O   -0.569889
     2  C    0.786938
     3  C   -0.130802
     4  N   -0.883668
     5  N    0.093629
     6  N   -0.335278
     7  C   -0.020491
     8  C   -0.078749
     9  C   -0.233447
    10  C   -0.205614
    11  C   -0.063546
    12  C    0.488617
    13  N   -0.984452
    14  C   -0.083049
    15  C    0.067494
    16  C   -0.104190
    17  C   -0.552051
    18  S    0.479094
    19  C   -0.603050
    20  C    0.318988
    21  C   -0.210873
    22  C   -0.209845
    23  C    0.050307
    24  C   -0.216940
    25  C   -0.142532
    26  C   -0.306145
    27  C    0.223876
    28  N   -0.685216
    29  N   -0.247132
    30  C    0.076979
    31  H    0.248195
    32  H    0.239791
    33  H    0.240172
    34  H    0.203895
    35  H    0.205237
    36  H    0.223285
    37  H    0.192851
    38  H    0.225130
    39  H    0.222361
    40  H    0.238652
    41  H    0.250846
    42  H    0.226335
    43  H    0.209158
    44  H    0.219572
    45  H    0.240246
    46  H    0.253221
    47  H    0.235048
    48  H    0.407043
 Sum of Mulliken atomic charges =   0.00000

 Dipole moment (field-independent basis, Debye):
    X=              2.2524    Y=              8.2663    Z=             -0.0389  Tot=              8.5677
 Quadrupole moment (field-independent basis, Debye-Ang):
   XX=           -175.5067   YY=           -183.5178   ZZ=           -183.2348
   XY=             10.3887   XZ=             16.9389   YZ=             13.3065

 1\1\GINC-LQCAPF-6\FOpt\RHF\6-31G\C22H18N6O1S1\LQCAPF-6\26-Aug-2022\0\\
 #p opt hf/6-31G\\Mol19.out\\0,1\O,20.8238001088,-7.9618147624,-2.02609
 83461\C,21.2506687701,-8.9150679456,-1.3933484309\C,22.6583351695,-8.8
 819113088,-0.809259573\N,23.289523444,-7.6114790157,-0.9930618787\N,23
 .3419128189,-6.7327043787,0.0483537863\N,23.906249989,-5.6620466134,-0
 .3289754164\C,24.2503597397,-5.7835207995,-1.6657581991\C,24.888340979
 1,-4.8884237715,-2.5237979635\C,25.1014917587,-5.2998395983,-3.8163123
 958\C,24.6841848477,-6.5777699553,-4.2517579322\C,24.0522133216,-7.464

 Normal termination of Gaussian 09 at Fri Aug 26 21:23:29 2022.
