 Gaussian 09, Revision C.01,
 Gaussian 09:  EM64L-G09RevC.01 23-Sep-2011

 ---------------
 #p opt hf/6-31G
 ---------------

 (Enter /opt/gaussian/l101.exe)
 ---------
 Mol18.out
 ---------
 Charge =  0 Multiplicity = 1

 SCF Done:  E(RHF) =  -1680.94962162     A.U. after   17 cycles
 SCF Done:  E(RHF) =  -1680.99111022     A.U. after   15 cycles
 SCF Done:  E(RHF) =  -1681.00446819     A.U. after   15 cycles
 SCF Done:  E(RHF) =  -1681.00578965     A.U. after   15 cycles
 SCF Done:  E(RHF) =  -1681.00660503     A.U. after   14 cycles
 SCF Done:  E(RHF) =  -1681.00654806     A.U. after   14 cycles
 SCF Done:  E(RHF) =  -1681.00723653     A.U. after   15 cycles
 SCF Done:  E(RHF) =  -1681.00752753     A.U. after   13 cycles
 SCF Done:  E(RHF) =  -1681.00761701     A.U. after   13 cycles
 SCF Done:  E(RHF) =  -1681.00764274     A.U. after   12 cycles
 SCF Done:  E(RHF) =  -1681.00765379     A.U. after    9 cycles
 SCF Done:  E(RHF) =  -1681.00765418     A.U. after   11 cycles
 SCF Done:  E(RHF) =  -1681.00765486     A.U. after   11 cycles
 SCF Done:  E(RHF) =  -1681.00765597     A.U. after   10 cycles
 SCF Done:  E(RHF) =  -1681.00765716     A.U. after   10 cycles
 SCF Done:  E(RHF) =  -1681.00765807     A.U. after   12 cycles
 SCF Done:  E(RHF) =  -1681.00765833     A.U. after   10 cycles
 SCF Done:  E(RHF) =  -1681.00765837     A.U. after    9 cycles
 SCF Done:  E(RHF) =  -1681.00765840     A.U. after    8 cycles
 SCF Done:  E(RHF) =  -1681.00765841     A.U. after    8 cycles
 Optimization completed.
    -- Stationary point found.

                         Standard orientation:
 ---------------------------------------------------------------------
 Center     Atomic      Atomic             Coordinates (Angstroms)
 Number     Number       Type             X           Y           Z
 ---------------------------------------------------------------------
      1          6           0       -8.247759   -2.449124    0.808853
      2          7           0       -7.200420   -1.495886    0.517120
      3          6           0       -5.884371   -1.720015    0.318520
      4          6           0       -5.284414   -0.502413    0.102161
      5          6           0       -6.352739    0.426007    0.193861
      6          7           0       -7.492479   -0.181537    0.440387
      7          6           0       -3.866624   -0.223811   -0.161688
      8          6           0       -3.070563   -1.124998   -0.870787
      9          6           0       -1.734310   -0.868817   -1.114747
     10          6           0       -1.151367    0.304631   -0.651756
     11          6           0       -1.930132    1.211965    0.051874
     12          6           0       -3.270352    0.950134    0.290915
     13          7           0        0.224441    0.602233   -0.945694
     14          6           0        0.528904    1.910600   -1.529090
     15          6           0        1.119574    2.919595   -0.571278
     16          6           0        1.619149    4.197077   -1.041438
     17          6           0        2.101477    4.984508   -0.068851
     18         16           0        1.980971    4.205409    1.534795
     19          6           0        1.240879    2.772194    0.759685
     20          6           0        1.195738   -0.333020   -0.693916
     21          8           0        0.966932   -1.383606   -0.114470
     22          6           0        2.606023   -0.013049   -1.176668
     23          7           0        3.509786   -1.100555   -0.960369
     24          7           0        3.828665   -1.924432   -1.998706
     25          7           0        4.605155   -2.839680   -1.590196
     26          6           0        4.830795   -2.664106   -0.234301
     27          6           0        5.608737   -3.399335    0.659374
     28          6           0        5.641557   -2.971739    1.963786
     29          6           0        4.910696   -1.834693    2.375867
     30          6           0        4.139571   -1.106464    1.502088
     31          6           0        4.115705   -1.546007    0.175909
     32          1           0       -8.627545   -2.294826    1.808331
     33          1           0       -9.054184   -2.329825    0.101664
     34          1           0       -7.847182   -3.448201    0.728997
     35          1           0       -5.467182   -2.700223    0.362476
     36          1           0       -6.321509    1.484283    0.070294
     37          1           0       -3.505233   -2.026302   -1.257330
     38          1           0       -1.144791   -1.581685   -1.652293
     39          1           0       -1.496971    2.118076    0.426011
     40          1           0       -3.846325    1.656387    0.856722
     41          1           0        1.194821    1.794967   -2.376099
     42          1           0       -0.396231    2.298610   -1.931615
     43          1           0        1.604032    4.486203   -2.073465
     44          1           0        2.521859    5.960725   -0.156365
     45          1           0        0.944357    1.941096    1.359360
     46          1           0        2.599132    0.170126   -2.240692
     47          1           0        2.977793    0.875364   -0.685167
     48          1           0        6.152172   -4.260527    0.326708
     49          1           0        6.224480   -3.504765    2.688614
     50          1           0        4.957498   -1.537298    3.405535
     51          1           0        3.576946   -0.255612    1.829321
 ---------------------------------------------------------------------

 The electronic state is 1-A.
 Alpha  occ. eigenvalues --  -91.98733 -20.54843 -15.66291 -15.65388 -15.64886
 Alpha  occ. eigenvalues --  -15.62074 -15.61113 -15.59660 -11.38746 -11.31069
 Alpha  occ. eigenvalues --  -11.31007 -11.29649 -11.29382 -11.29151 -11.29141
 Alpha  occ. eigenvalues --  -11.28251 -11.27978 -11.27822 -11.26729 -11.26445
 Alpha  occ. eigenvalues --  -11.25820 -11.25808 -11.25317 -11.25180 -11.25173
 Alpha  occ. eigenvalues --  -11.24675 -11.24330 -11.24281 -11.24128 -11.24022
 Alpha  occ. eigenvalues --  -11.23832  -9.00513  -6.68643  -6.68510  -6.68247
 Alpha  occ. eigenvalues --   -1.47409  -1.42115  -1.40351  -1.28563  -1.24835
 Alpha  occ. eigenvalues --   -1.19955  -1.17691  -1.17146  -1.14234  -1.09179
 Alpha  occ. eigenvalues --   -1.06408  -1.05632  -1.05224  -1.03110  -1.02772
 Alpha  occ. eigenvalues --   -1.01452  -1.00747  -0.95906  -0.94953  -0.88805
 Alpha  occ. eigenvalues --   -0.87779  -0.85206  -0.84889  -0.82679  -0.80430
 Alpha  occ. eigenvalues --   -0.80029  -0.78089  -0.77509  -0.75873  -0.73630
 Alpha  occ. eigenvalues --   -0.73409  -0.72430  -0.72204  -0.70704  -0.69126
 Alpha  occ. eigenvalues --   -0.66446  -0.66086  -0.65858  -0.65453  -0.64005
 Alpha  occ. eigenvalues --   -0.63866  -0.63196  -0.62263  -0.61688  -0.60964
 Alpha  occ. eigenvalues --   -0.60672  -0.60130  -0.59681  -0.59229  -0.57918
 Alpha  occ. eigenvalues --   -0.56930  -0.56189  -0.55594  -0.54486  -0.53563
 Alpha  occ. eigenvalues --   -0.53258  -0.52987  -0.52788  -0.52281  -0.51425
 Alpha  occ. eigenvalues --   -0.50514  -0.50128  -0.49363  -0.48179  -0.44872
 Alpha  occ. eigenvalues --   -0.44512  -0.42922  -0.42217  -0.42007  -0.37362
 Alpha  occ. eigenvalues --   -0.36549  -0.36059  -0.35469  -0.34559  -0.33616
 Alpha  occ. eigenvalues --   -0.31999  -0.29555
 Alpha virt. eigenvalues --    0.09938   0.10602   0.11649   0.13487   0.15879
 Alpha virt. eigenvalues --    0.16307   0.16594   0.17596   0.18807   0.20626
 Alpha virt. eigenvalues --    0.21608   0.23440   0.23498   0.23696   0.24564

 Mulliken atomic charges:
              1
     1  C   -0.171139
     2  N   -0.680547
     3  C    0.259380
     4  C   -0.324000
     5  C    0.088994
     6  N   -0.255619
     7  C    0.053227
     8  C   -0.217688
     9  C   -0.141977
    10  C    0.317638
    11  C   -0.210864
    12  C   -0.210950
    13  N   -0.983954
    14  C   -0.082975
    15  C    0.067576
    16  C   -0.103937
    17  C   -0.551912
    18  S    0.478654
    19  C   -0.603047
    20  C    0.786863
    21  O   -0.571269
    22  C   -0.131208
    23  N   -0.882728
    24  N    0.094310
    25  N   -0.335903
    26  C   -0.020129
    27  C   -0.079000
    28  C   -0.233523
    29  C   -0.205696
    30  C   -0.064382
    31  C    0.487724
    32  H    0.196075
    33  H    0.200682
    34  H    0.169861
    35  H    0.254477
    36  H    0.226296
    37  H    0.210225
    38  H    0.237452
    39  H    0.226378
    40  H    0.216200
    41  H    0.192049
    42  H    0.226413
    43  H    0.222383
    44  H    0.238526
    45  H    0.250692
    46  H    0.248255
    47  H    0.239631
    48  H    0.239884
    49  H    0.203629
    50  H    0.205176
    51  H    0.223800
 Sum of Mulliken atomic charges =   0.00000

 Dipole moment (field-independent basis, Debye):
    X=             -1.2008    Y=              3.5553    Z=              0.7069  Tot=              3.8186
 Quadrupole moment (field-independent basis, Debye-Ang):
   XX=           -193.9224   YY=           -174.8833   ZZ=           -188.6527
   XY=             33.6032   XZ=             11.7441   YZ=            -18.9352

 1\1\GINC-LQCAPF-6\FOpt\RHF\6-31G\C23H20N6O1S1\LQCAPF-6\26-Aug-2022\0\\
 #p opt hf/6-31G\\Mol18.out\\0,1\C,12.6477386379,-8.3970578072,-1.89114
 29921\N,13.9001570561,-9.0479508219,-1.5773335071\C,15.112352056,-8.49
 27619648,-1.3675468868\C,16.0009340899,-9.5143530545,-1.130720034\C,15
 .2069649481,-10.6860282128,-1.2228075819\N,13.9530686187,-10.392562877
 2,-1.4883567369\C,17.4392254369,-9.4185319052,-0.8487640913\C,17.96887
 13308,-8.337567315,-0.1418957956\C,19.3228718417,-8.2411120128,0.11905
 58445\C,20.192637189,-9.2302054164,-0.3240770529\C,19.6812108202,-10.3

 Normal termination of Gaussian 09 at Fri Aug 26 20:57:22 2022.
