 Gaussian 09, Revision C.01,
 Gaussian 09:  EM64L-G09RevC.01 23-Sep-2011

 ---------------
 #p opt hf/6-31G
 ---------------

 (Enter /opt/gaussian/l101.exe)
 ---------
 Mol17.out
 ---------
 Charge =  0 Multiplicity = 1

 SCF Done:  E(RHF) =  -1699.66774658     A.U. after   18 cycles
 SCF Done:  E(RHF) =  -1699.70382825     A.U. after   15 cycles
 SCF Done:  E(RHF) =  -1699.71151770     A.U. after   15 cycles
 SCF Done:  E(RHF) =  -1699.71302788     A.U. after   15 cycles
 SCF Done:  E(RHF) =  -1699.71476446     A.U. after   14 cycles
 SCF Done:  E(RHF) =  -1699.71515292     A.U. after   14 cycles
 SCF Done:  E(RHF) =  -1699.71546188     A.U. after   17 cycles
 SCF Done:  E(RHF) =  -1699.71625402     A.U. after   14 cycles
 SCF Done:  E(RHF) =  -1699.71651977     A.U. after   16 cycles
 SCF Done:  E(RHF) =  -1699.71680471     A.U. after   15 cycles
 SCF Done:  E(RHF) =  -1699.71711845     A.U. after   12 cycles
 SCF Done:  E(RHF) =  -1699.71712113     A.U. after   10 cycles
 SCF Done:  E(RHF) =  -1699.71712188     A.U. after   10 cycles
 SCF Done:  E(RHF) =  -1699.71712236     A.U. after   11 cycles
 SCF Done:  E(RHF) =  -1699.71712276     A.U. after   10 cycles
 SCF Done:  E(RHF) =  -1699.71712325     A.U. after   10 cycles
 SCF Done:  E(RHF) =  -1699.71712363     A.U. after   10 cycles
 SCF Done:  E(RHF) =  -1699.71712385     A.U. after   10 cycles
 SCF Done:  E(RHF) =  -1699.71712402     A.U. after   10 cycles
 SCF Done:  E(RHF) =  -1699.71712408     A.U. after    9 cycles
 Optimization completed.
    -- Stationary point found.

                         Standard orientation:
 ---------------------------------------------------------------------
 Center     Atomic      Atomic             Coordinates (Angstroms)
 Number     Number       Type             X           Y           Z
 ---------------------------------------------------------------------
      1         16           0       -1.489126    5.351093   -0.142960
      2          6           0        0.253073    4.983239   -0.097703
      3          6           0       -1.848046    3.598690   -0.171058
      4          6           0        0.486088    3.664156   -0.105603
      5          6           0       -0.721676    2.856296   -0.146849
      6          7           0       -0.639305    1.431315   -0.158439
      7          6           0        3.218714   -0.299978    0.143302
      8          6           0        2.651229   -0.035694   -1.105357
      9          6           0        2.476363    0.004159    1.284568
     10          6           0        1.391936    0.532373   -1.202788
     11          6           0        1.215545    0.571677    1.188116
     12          6           0        0.668599    0.834270   -0.057698
     13          6           0       -1.756805    0.639743   -0.254084
     14          6           0       -1.533576   -0.868396   -0.250000
     15          8           0       -2.889635    1.092879   -0.313449
     16          6           0       -3.829834   -1.823772    0.286561
     17          7           0       -2.743994   -1.589649   -0.503101
     18          6           0       -4.683854   -2.567121   -0.518318
     19          7           0       -2.945868   -2.149120   -1.730298
     20          7           0       -4.073854   -2.727384   -1.752162
     21          6           0       -4.167900   -1.490885    1.600929
     22          6           0       -5.382703   -1.944035    2.056297
     23          6           0       -5.916605   -3.020188   -0.050072
     24          6           0       -6.253340   -2.703714    1.242951
     25          6           0        7.141658   -1.959870    0.558833
     26          7           0        6.289995   -2.398042   -0.413595
     27          6           0        6.758335   -0.977884    1.392541
     28          6           0        5.019351   -1.913362   -0.640792
     29          6           0        5.448536   -0.429233    1.228178
     30          6           0        4.585976   -0.862333    0.274121
     31          8           0        4.352755   -2.379539   -1.570345
     32          1           0        0.970383    5.771597   -0.072481
     33          1           0       -2.853935    3.266307   -0.211548
     34          1           0        1.470595    3.251964   -0.087241
     35          1           0        3.185166   -0.291417   -1.994939
     36          1           0        2.873123   -0.221848    2.254958
     37          1           0        0.969339    0.744442   -2.165791
     38          1           0        0.658272    0.810068    2.073516
     39          1           0       -0.831406   -1.154375   -1.016055
     40          1           0       -1.116511   -1.171865    0.701652
     41          1           0       -3.527417   -0.894578    2.218575
     42          1           0       -5.687114   -1.708862    3.057820
     43          1           0       -6.563633   -3.590161   -0.685814
     44          1           0       -7.191313   -3.028449    1.648092
     45          1           0        8.098807   -2.435483    0.600782
     46          1           0        6.571478   -3.122348   -1.035397
     47          1           0        7.412355   -0.613464    2.155580
     48          1           0        5.147652    0.365607    1.882716
 ---------------------------------------------------------------------

 The electronic state is 1-A.
 Alpha  occ. eigenvalues --  -91.96557 -20.55203 -20.53455 -15.65869 -15.64952
 Alpha  occ. eigenvalues --  -15.64684 -15.63072 -15.60667 -11.38910 -11.38798
 Alpha  occ. eigenvalues --  -11.33443 -11.30570 -11.30559 -11.29972 -11.29371
 Alpha  occ. eigenvalues --  -11.29007 -11.27945 -11.27865 -11.27676 -11.26603
 Alpha  occ. eigenvalues --  -11.26571 -11.26451 -11.26134 -11.26079 -11.26065
 Alpha  occ. eigenvalues --  -11.25687 -11.25030 -11.25004 -11.24866 -11.24852
 Alpha  occ. eigenvalues --  -11.23720  -8.98355  -6.66488  -6.66357  -6.66090
 Alpha  occ. eigenvalues --   -1.46979  -1.42462  -1.41241  -1.30446  -1.29527
 Alpha  occ. eigenvalues --   -1.24380  -1.19398  -1.17354  -1.16932  -1.14042
 Alpha  occ. eigenvalues --   -1.08016  -1.06061  -1.05012  -1.04865  -1.03071
 Alpha  occ. eigenvalues --   -1.02013  -0.99430  -0.97652  -0.91945  -0.90006
 Alpha  occ. eigenvalues --   -0.88421  -0.86485  -0.86262  -0.84674  -0.83635
 Alpha  occ. eigenvalues --   -0.80280  -0.77984  -0.77766  -0.75458  -0.73319
 Alpha  occ. eigenvalues --   -0.72965  -0.71927  -0.71696  -0.70994  -0.70347
 Alpha  occ. eigenvalues --   -0.69050  -0.67685  -0.65224  -0.64997  -0.64191
 Alpha  occ. eigenvalues --   -0.63500  -0.63033  -0.62817  -0.62613  -0.61766
 Alpha  occ. eigenvalues --   -0.61307  -0.60812  -0.60260  -0.58099  -0.57395
 Alpha  occ. eigenvalues --   -0.56956  -0.56386  -0.53964  -0.53612  -0.53297
 Alpha  occ. eigenvalues --   -0.52802  -0.52002  -0.51365  -0.51287  -0.50100
 Alpha  occ. eigenvalues --   -0.49786  -0.49059  -0.46828  -0.45311  -0.44108
 Alpha  occ. eigenvalues --   -0.43780  -0.43345  -0.42702  -0.41766  -0.37249
 Alpha  occ. eigenvalues --   -0.36390  -0.34291  -0.33274  -0.31807  -0.31416
 Alpha  occ. eigenvalues --   -0.31361
 Alpha virt. eigenvalues --    0.06178   0.10302   0.10919   0.12336   0.13337
 Alpha virt. eigenvalues --    0.15170   0.16186   0.17108   0.18780   0.19855
 Alpha virt. eigenvalues --    0.21040   0.22202   0.23847   0.24466   0.25313

 Mulliken atomic charges:
              1
     1  S    0.473703
     2  C   -0.564071
     3  C   -0.572768
     4  C   -0.098077
     5  C    0.443616
     6  N   -1.077827
     7  C    0.005974
     8  C   -0.162190
     9  C   -0.208038
    10  C   -0.178773
    11  C   -0.169136
    12  C    0.209018
    13  C    0.802554
    14  C   -0.122567
    15  O   -0.584791
    16  C    0.489140
    17  N   -0.883608
    18  C   -0.020387
    19  N    0.098133
    20  N   -0.336226
    21  C   -0.063289
    22  C   -0.206865
    23  C   -0.079411
    24  C   -0.233850
    25  C    0.243640
    26  N   -0.979390
    27  C   -0.311404
    28  C    0.795718
    29  C   -0.118406
    30  C   -0.157382
    31  O   -0.621629
    32  H    0.228444
    33  H    0.297094
    34  H    0.234841
    35  H    0.263059
    36  H    0.217153
    37  H    0.241709
    38  H    0.229887
    39  H    0.265571
    40  H    0.228200
    41  H    0.221897
    42  H    0.203148
    43  H    0.239555
    44  H    0.202546
    45  H    0.247679
    46  H    0.410341
    47  H    0.226554
    48  H    0.230912
 Sum of Mulliken atomic charges =   0.00000

 Dipole moment (field-independent basis, Debye):
    X=             10.5953    Y=             -0.0428    Z=              7.2220  Tot=             12.8226
 Quadrupole moment (field-independent basis, Debye-Ang):
   XX=           -133.2283   YY=           -200.3075   ZZ=           -190.8908
   XY=             -2.6305   XZ=             -4.2432   YZ=            -12.4972

 1\1\GINC-LQCAPF-6\FOpt\RHF\6-31G\C23H17N5O2S1\LQCAPF-6\26-Aug-2022\0\\
 #p opt hf/6-31G\\Mol17.out\\0,1\S,13.7342441743,-8.0551093925,-1.61185
 30081\C,14.8808103123,-6.6978288885,-1.4861617169\C,15.0694656151,-9.2
 000216297,-1.2849142681\C,16.1258628201,-7.1174250548,-1.2251604863\C,
 16.2444272792,-8.5613128105,-1.106143459\N,17.5084108778,-9.1632915744
 ,-0.8278310753\C,20.7974663611,-6.5715988982,-0.1660333866\C,20.521889
 7408,-7.062094048,-1.4445113459\C,19.973879434,-6.9706263182,0.8868452
 569\C,19.4455849597,-7.9065502193,-1.6600907104\C,18.8971341718,-7.816

 Normal termination of Gaussian 09 at Fri Aug 26 20:15:49 2022.
