 Gaussian 09, Revision C.01,
 Gaussian 09:  EM64L-G09RevC.01 23-Sep-2011

 ---------------
 #p opt hf/6-31G
 ---------------

 (Enter /opt/gaussian/l101.exe)
 ---------
 Mol29.out
 ---------
 Charge =  0 Multiplicity = 1

 SCF Done:  E(RHF) =  -1900.97082978     A.U. after   17 cycles
 SCF Done:  E(RHF) =  -1901.00638669     A.U. after   15 cycles
 SCF Done:  E(RHF) =  -1901.01179251     A.U. after   17 cycles
 SCF Done:  E(RHF) =  -1901.01263180     A.U. after   17 cycles
 SCF Done:  E(RHF) =  -1901.01459098     A.U. after   15 cycles
 SCF Done:  E(RHF) =  -1901.01608930     A.U. after   14 cycles
 SCF Done:  E(RHF) =  -1901.01696828     A.U. after   15 cycles
 SCF Done:  E(RHF) =  -1901.01729118     A.U. after   16 cycles
 SCF Done:  E(RHF) =  -1901.01760881     A.U. after   14 cycles
 SCF Done:  E(RHF) =  -1901.01771474     A.U. after   13 cycles
 SCF Done:  E(RHF) =  -1901.01775510     A.U. after   12 cycles
 SCF Done:  E(RHF) =  -1901.01776217     A.U. after   12 cycles
 SCF Done:  E(RHF) =  -1901.01776454     A.U. after   12 cycles
 SCF Done:  E(RHF) =  -1901.01776555     A.U. after   10 cycles
 SCF Done:  E(RHF) =  -1901.01776628     A.U. after   10 cycles
 SCF Done:  E(RHF) =  -1901.01776658     A.U. after   10 cycles
 SCF Done:  E(RHF) =  -1901.01776668     A.U. after    9 cycles
 SCF Done:  E(RHF) =  -1901.01776673     A.U. after    9 cycles
 SCF Done:  E(RHF) =  -1901.01776675     A.U. after    9 cycles
 SCF Done:  E(RHF) =  -1901.01776676     A.U. after    8 cycles
 Optimization completed.
    -- Stationary point found.

                         Standard orientation:
 ---------------------------------------------------------------------
 Center     Atomic      Atomic             Coordinates (Angstroms)
 Number     Number       Type             X           Y           Z
 ---------------------------------------------------------------------
      1          9           0        3.184502    4.743210    1.930796
      2          6           0        2.496778    3.889361    1.119010
      3          6           0        1.823442    2.831126    1.683325
      4          6           0        1.121639    1.958182    0.864100
      5          6           0        1.096674    2.145042   -0.513263
      6          6           0        1.792823    3.222038   -1.057329
      7          6           0        2.487467    4.092351   -0.243544
      8         17           0        3.375994    5.473670   -0.954172
      9          6           0        0.322396    1.235031   -1.457226
     10          7           0       -0.155926   -0.017166   -0.869843
     11          6           0        0.681077   -1.080947   -0.631115
     12          8           0        0.317403   -2.084469   -0.039812
     13          6           0        2.112727   -0.962928   -1.141040
     14          7           0        2.855461   -2.168207   -0.944550
     15          7           0        3.026398   -3.027313   -1.991069
     16          7           0        3.672596   -4.044970   -1.601060
     17          6           0        3.955516   -3.907740   -0.251145
     18          6           0        4.641898   -4.750255    0.622174
     19          6           0        4.769223   -4.336280    1.925369
     20          6           0        4.220453   -3.107599    2.355584
     21          6           0        3.540084   -2.272854    1.501475
     22          6           0        3.419549   -2.699712    0.176711
     23          6           0       -1.558094   -0.125316   -0.571394
     24          6           0       -2.211789    0.901859    0.095085
     25          6           0       -3.575841    0.829107    0.332439
     26          6           0       -4.317255   -0.274878   -0.076162
     27          6           0       -3.646963   -1.302945   -0.739381
     28          6           0       -2.289330   -1.230022   -0.992423
     29          6           0       -5.776173   -0.355912    0.184096
     30          6           0       -6.322502   -0.012288    1.419018
     31          6           0       -7.691314   -0.103409    1.614202
     32          6           0       -8.485759   -0.540897    0.567332
     33          7           0       -7.973527   -0.870420   -0.616681
     34          6           0       -6.660710   -0.780545   -0.805643
     35          1           0        1.851838    2.702330    2.745890
     36          1           0        0.593746    1.136482    1.304743
     37          1           0        1.797697    3.389041   -2.116733
     38          1           0       -0.547818    1.760446   -1.822788
     39          1           0        0.931331    1.028084   -2.328285
     40          1           0        2.110949   -0.774999   -2.204414
     41          1           0        2.618761   -0.138930   -0.656550
     42          1           0        5.047032   -5.679465    0.275838
     43          1           0        5.287691   -4.950038    2.634992
     44          1           0        4.335942   -2.823676    3.383624
     45          1           0        3.113942   -1.351226    1.843218
     46          1           0       -1.669733    1.764968    0.426707
     47          1           0       -4.063468    1.646943    0.826746
     48          1           0       -4.186623   -2.176285   -1.049362
     49          1           0       -1.797669   -2.040026   -1.488021
     50          1           0       -5.682766    0.302658    2.220542
     51          1           0       -8.130486    0.149868    2.558211
     52          1           0       -9.547137   -0.631819    0.670866
     53          1           0       -6.305979   -1.040776   -1.782052
 ---------------------------------------------------------------------

 The electronic state is 1-A.
 Alpha  occ. eigenvalues -- -104.84762 -26.32941 -20.56108 -15.66948 -15.66078
 Alpha  occ. eigenvalues --  -15.63395 -15.61783 -15.57999 -11.39922 -11.37601
 Alpha  occ. eigenvalues --  -11.35189 -11.32219 -11.32122 -11.30773 -11.30068
 Alpha  occ. eigenvalues --  -11.30041 -11.29557 -11.29014 -11.28867 -11.28361
 Alpha  occ. eigenvalues --  -11.28264 -11.27066 -11.26917 -11.26846 -11.26733
 Alpha  occ. eigenvalues --  -11.26130 -11.25967 -11.25895 -11.25814 -11.25752
 Alpha  occ. eigenvalues --  -11.25581 -11.25495 -11.25444 -11.24571 -10.58648
 Alpha  occ. eigenvalues --   -8.05503  -8.05089  -8.05080  -1.64372  -1.48077
 Alpha  occ. eigenvalues --   -1.43398  -1.29919  -1.28446  -1.25609  -1.23645
 Alpha  occ. eigenvalues --   -1.18673  -1.18293  -1.15526  -1.11689  -1.09721
 Alpha  occ. eigenvalues --   -1.07694  -1.06814  -1.05727  -1.04895  -1.04365
 Alpha  occ. eigenvalues --   -1.03138  -1.01346  -0.98660  -0.90107  -0.90024
 Alpha  occ. eigenvalues --   -0.89350  -0.88169  -0.86323  -0.85713  -0.84976
 Alpha  occ. eigenvalues --   -0.84468  -0.81943  -0.78570  -0.76934  -0.75234
 Alpha  occ. eigenvalues --   -0.74337  -0.73657  -0.72940  -0.72515  -0.71137
 Alpha  occ. eigenvalues --   -0.70953  -0.70233  -0.68623  -0.68107  -0.66639
 Alpha  occ. eigenvalues --   -0.66171  -0.66037  -0.64948  -0.64587  -0.64146
 Alpha  occ. eigenvalues --   -0.63666  -0.63285  -0.62769  -0.62155  -0.61685
 Alpha  occ. eigenvalues --   -0.61601  -0.61017  -0.59427  -0.58553  -0.58174
 Alpha  occ. eigenvalues --   -0.56492  -0.56153  -0.55633  -0.54809  -0.54187
 Alpha  occ. eigenvalues --   -0.53857  -0.53766  -0.52620  -0.52034  -0.51213
 Alpha  occ. eigenvalues --   -0.51132  -0.50012  -0.49271  -0.47862  -0.45600
 Alpha  occ. eigenvalues --   -0.43831  -0.43380  -0.42833  -0.40828  -0.39265
 Alpha  occ. eigenvalues --   -0.38596  -0.37484  -0.36968  -0.35845  -0.34243
 Alpha  occ. eigenvalues --   -0.32638  -0.31859
 Alpha virt. eigenvalues --    0.08435   0.09074   0.09318   0.10053   0.11623
 Alpha virt. eigenvalues --    0.12047   0.14404   0.15398   0.15482   0.17391
 Alpha virt. eigenvalues --    0.19532   0.20429   0.22516   0.23686   0.24105

 Mulliken atomic charges:
              1
     1  F   -0.430509
     2  C    0.465303
     3  C   -0.213400
     4  C   -0.201740
     5  C   -0.034007
     6  C   -0.156971
     7  C   -0.372523
     8  Cl   0.171877
     9  C   -0.078022
    10  N   -0.992196
    11  C    0.784666
    12  O   -0.564895
    13  C   -0.129656
    14  N   -0.884986
    15  N    0.095553
    16  N   -0.331907
    17  C   -0.020694
    18  C   -0.077205
    19  C   -0.233635
    20  C   -0.203715
    21  C   -0.065870
    22  C    0.490019
    23  C    0.327847
    24  C   -0.215129
    25  C   -0.201625
    26  C   -0.017186
    27  C   -0.207122
    28  C   -0.144452
    29  C   -0.089456
    30  C   -0.139218
    31  C   -0.245130
    32  C    0.059295
    33  N   -0.531992
    34  C    0.060773
    35  H    0.251464
    36  H    0.252938
    37  H    0.248732
    38  H    0.232057
    39  H    0.198252
    40  H    0.251364
    41  H    0.234597
    42  H    0.242534
    43  H    0.206032
    44  H    0.205954
    45  H    0.218737
    46  H    0.220413
    47  H    0.218727
    48  H    0.227526
    49  H    0.246128
    50  H    0.224093
    51  H    0.215962
    52  H    0.212766
    53  H    0.219633
 Sum of Mulliken atomic charges =   0.00000

 Dipole moment (field-independent basis, Debye):
    X=             -0.9866    Y=              3.6740    Z=              3.1442  Tot=              4.9353
 Quadrupole moment (field-independent basis, Debye-Ang):
   XX=           -223.4235   YY=           -237.8980   ZZ=           -197.2802
   XY=            -14.8297   XZ=             -5.7906   YZ=            -16.3800

 Normal termination of Gaussian 09 at Sat Aug 27 03:58:55 2022.
