 Gaussian 09, Revision C.01,
 Gaussian 09:  EM64L-G09RevC.01 23-Sep-2011

 ---------------
 #p opt hf/6-31G
 ---------------

 (Enter /opt/gaussian/l101.exe)
 ---------
 Mol25.out
 ---------
 Charge =  0 Multiplicity = 1

 SCF Done:  E(RHF) =  -1307.73499815     A.U. after   17 cycles
 SCF Done:  E(RHF) =  -1307.76896811     A.U. after   15 cycles
 SCF Done:  E(RHF) =  -1307.77675652     A.U. after   16 cycles
 SCF Done:  E(RHF) =  -1307.77888480     A.U. after   16 cycles
 SCF Done:  E(RHF) =  -1307.78023999     A.U. after   16 cycles
 SCF Done:  E(RHF) =  -1307.78167912     A.U. after   14 cycles
 SCF Done:  E(RHF) =  -1307.78267368     A.U. after   14 cycles
 SCF Done:  E(RHF) =  -1307.78285542     A.U. after   14 cycles
 SCF Done:  E(RHF) =  -1307.78300320     A.U. after   13 cycles
 SCF Done:  E(RHF) =  -1307.78308793     A.U. after   12 cycles
 SCF Done:  E(RHF) =  -1307.78453274     A.U. after   10 cycles
 SCF Done:  E(RHF) =  -1307.78453563     A.U. after   10 cycles
 SCF Done:  E(RHF) =  -1307.78453520     A.U. after    8 cycles
 SCF Done:  E(RHF) =  -1307.78453611     A.U. after    8 cycles
 SCF Done:  E(RHF) =  -1307.78454042     A.U. after   12 cycles
 SCF Done:  E(RHF) =  -1307.78453948     A.U. after   11 cycles
 SCF Done:  E(RHF) =  -1307.78454212     A.U. after   10 cycles
 SCF Done:  E(RHF) =  -1307.78454245     A.U. after   10 cycles
 SCF Done:  E(RHF) =  -1307.78454284     A.U. after    8 cycles
 SCF Done:  E(RHF) =  -1307.78454291     A.U. after    8 cycles
 Optimization completed on the basis of negligible forces.
    -- Stationary point found.

                         Standard orientation:
 ---------------------------------------------------------------------
 Center     Atomic      Atomic             Coordinates (Angstroms)
 Number     Number       Type             X           Y           Z
 ---------------------------------------------------------------------
      1          8           0        1.227067   -1.253583   -0.319221
      2          6           0        1.352452   -0.086594   -0.662005
      3          6           0        2.732728    0.473932   -0.982783
      4          7           0        3.760484   -0.519377   -0.905948
      5          7           0        4.345304   -0.962243   -2.056143
      6          7           0        5.221606   -1.834551   -1.777293
      7          6           0        5.252271   -2.016344   -0.404129
      8          6           0        6.043615   -2.853070    0.382184
      9          6           0        5.849259   -2.808393    1.740528
     10          6           0        4.879832   -1.951596    2.308933
     11          6           0        4.093185   -1.127660    1.540630
     12          6           0        4.302317   -1.173776    0.159677
     13          7           0        0.291406    0.769886   -0.769501
     14          6           0        0.429139    2.195758   -1.115133
     15          6           0        0.640281    3.135141    0.076252
     16          6           0        0.973063    4.572894   -0.376153
     17          6           0        0.618863    5.483002    0.825264
     18          6           0       -0.229210    4.610599    1.788808
     19          6           0       -0.575387    3.337368    0.997129
     20          6           0       -1.033394    0.252416   -0.562696
     21          6           0       -1.941188    0.251748   -1.611582
     22          6           0       -3.230164   -0.219914   -1.423030
     23          6           0       -3.636869   -0.714110   -0.185716
     24          6           0       -2.709384   -0.723982    0.855578
     25          6           0       -1.423475   -0.246288    0.671379
     26          6           0       -5.016289   -1.223284    0.016715
     27          6           0       -6.129431   -0.545738   -0.476499
     28          6           0       -7.398431   -1.059298   -0.261658
     29          6           0       -7.526685   -2.241533    0.448213
     30          7           0       -6.469456   -2.897737    0.922068
     31          6           0       -5.251223   -2.408307    0.712305
     32          1           0        2.756504    0.848477   -1.994714
     33          1           0        2.965690    1.294973   -0.316918
     34          1           0        6.768585   -3.498971   -0.070407
     35          1           0        6.432482   -3.433824    2.387023
     36          1           0        4.751263   -1.954075    3.374019
     37          1           0        3.343245   -0.502494    1.980709
     38          1           0        1.241463    2.316070   -1.818700
     39          1           0       -0.468763    2.490351   -1.639626
     40          1           0        1.463809    2.760379    0.680990
     41          1           0        2.006754    4.677803   -0.685365
     42          1           0        0.357648    4.830330   -1.234560
     43          1           0        1.513398    5.843984    1.318227
     44          1           0        0.069357    6.356705    0.497158
     45          1           0        0.351285    4.350190    2.667726
     46          1           0       -1.114826    5.126631    2.137902
     47          1           0       -1.464810    3.497739    0.392943
     48          1           0       -0.771203    2.489685    1.639233
     49          1           0       -1.636466    0.598342   -2.580077
     50          1           0       -3.910248   -0.233707   -2.252592
     51          1           0       -2.997896   -1.090533    1.821335
     52          1           0       -0.720361   -0.273843    1.478312
     53          1           0       -6.004316    0.379245   -1.005381
     54          1           0       -8.267350   -0.550718   -0.628596
     55          1           0       -8.485456   -2.675289    0.643778
     56          1           0       -4.436984   -2.988461    1.095788
 ---------------------------------------------------------------------

 The electronic state is 1-A.
 Alpha  occ. eigenvalues --  -20.54449 -15.66347 -15.65455 -15.61478 -15.61139
 Alpha  occ. eigenvalues --  -15.57637 -11.38540 -11.31249 -11.29458 -11.29426
 Alpha  occ. eigenvalues --  -11.29345 -11.27945 -11.27928 -11.26501 -11.26483
 Alpha  occ. eigenvalues --  -11.26421 -11.26347 -11.25359 -11.25322 -11.25216
 Alpha  occ. eigenvalues --  -11.25198 -11.25182 -11.25149 -11.25125 -11.25029
 Alpha  occ. eigenvalues --  -11.24906 -11.24057 -11.23820 -11.23263 -11.23236
 Alpha  occ. eigenvalues --  -11.23104  -1.47431  -1.41756  -1.28087  -1.27881
 Alpha  occ. eigenvalues --   -1.24859  -1.17955  -1.17691  -1.14820  -1.11051
 Alpha  occ. eigenvalues --   -1.07169  -1.06288  -1.05072  -1.04002  -1.03363
 Alpha  occ. eigenvalues --   -1.02409  -0.99893  -0.98556  -0.92957  -0.89233
 Alpha  occ. eigenvalues --   -0.88763  -0.87690  -0.85205  -0.84508  -0.84352
 Alpha  occ. eigenvalues --   -0.81240  -0.80114  -0.79661  -0.77444  -0.73741
 Alpha  occ. eigenvalues --   -0.72850  -0.72211  -0.71938  -0.70595  -0.68600
 Alpha  occ. eigenvalues --   -0.68396  -0.67038  -0.66572  -0.65561  -0.65197
 Alpha  occ. eigenvalues --   -0.64347  -0.63465  -0.63128  -0.62770  -0.61981
 Alpha  occ. eigenvalues --   -0.61196  -0.60984  -0.60568  -0.59305  -0.58664
 Alpha  occ. eigenvalues --   -0.57862  -0.56682  -0.55409  -0.55176  -0.54619
 Alpha  occ. eigenvalues --   -0.53670  -0.53213  -0.52008  -0.51438  -0.50792
 Alpha  occ. eigenvalues --   -0.50502  -0.50146  -0.49432  -0.49330  -0.48354
 Alpha  occ. eigenvalues --   -0.47895  -0.46913  -0.46887  -0.44266  -0.42926
 Alpha  occ. eigenvalues --   -0.42252  -0.41145  -0.40196  -0.38554  -0.36713
 Alpha  occ. eigenvalues --   -0.35151  -0.33666  -0.32097  -0.31512
 Alpha virt. eigenvalues --    0.09547   0.09956   0.11996   0.12725   0.15581
 Alpha virt. eigenvalues --    0.15826   0.17804   0.18823   0.20734   0.21433
 Alpha virt. eigenvalues --    0.22602   0.23777   0.24136   0.24500   0.25091

 Mulliken atomic charges:
              1
     1  O   -0.576432
     2  C    0.791859
     3  C   -0.123389
     4  N   -0.888792
     5  N    0.093096
     6  N   -0.334965
     7  C   -0.022189
     8  C   -0.078714
     9  C   -0.233519
    10  C   -0.206598
    11  C   -0.060530
    12  C    0.493401
    13  N   -0.980483
    14  C   -0.055029
    15  C   -0.171753
    16  C   -0.319129
    17  C   -0.315722
    18  C   -0.319182
    19  C   -0.296725
    20  C    0.307912
    21  C   -0.180780
    22  C   -0.202773
    23  C   -0.013345
    24  C   -0.210468
    25  C   -0.138841
    26  C   -0.091429
    27  C   -0.141132
    28  C   -0.245269
    29  C    0.058719
    30  N   -0.532619
    31  C    0.060903
    32  H    0.254404
    33  H    0.222230
    34  H    0.240407
    35  H    0.203858
    36  H    0.203921
    37  H    0.220219
    38  H    0.174415
    39  H    0.190466
    40  H    0.155837
    41  H    0.164669
    42  H    0.158954
    43  H    0.165980
    44  H    0.166822
    45  H    0.161561
    46  H    0.167121
    47  H    0.156843
    48  H    0.174360
    49  H    0.217514
    50  H    0.217200
    51  H    0.221548
    52  H    0.224492
    53  H    0.221015
    54  H    0.214099
    55  H    0.211375
    56  H    0.224604
 Sum of Mulliken atomic charges =   0.00000

 Dipole moment (field-independent basis, Debye):
    X=             -2.2654    Y=              7.8770    Z=              1.9400  Tot=              8.4227
 Quadrupole moment (field-independent basis, Debye-Ang):
   XX=           -186.5636   YY=           -190.5864   ZZ=           -183.5784
   XY=             -7.5691   XZ=             30.2650   YZ=             -9.6994

 Normal termination of Gaussian 09 at Sat Aug 27 01:48:02 2022.
