 Gaussian 09, Revision C.01,
 Gaussian 09:  EM64L-G09RevC.01 23-Sep-2011

 ---------------
 #p opt hf/6-31G
 ---------------

 (Enter /opt/gaussian/l101.exe)
 ---------
 Mol24.out
 ---------
 Charge =  0 Multiplicity = 1

 SCF Done:  E(RHF) =  -1268.69383082     A.U. after   17 cycles
 SCF Done:  E(RHF) =  -1268.72462298     A.U. after   15 cycles
 SCF Done:  E(RHF) =  -1268.72948324     A.U. after   14 cycles
 SCF Done:  E(RHF) =  -1268.73042872     A.U. after   14 cycles
 SCF Done:  E(RHF) =  -1268.73084337     A.U. after   16 cycles
 SCF Done:  E(RHF) =  -1268.73191628     A.U. after   15 cycles
 SCF Done:  E(RHF) =  -1268.73275312     A.U. after   16 cycles
 SCF Done:  E(RHF) =  -1268.73386794     A.U. after   17 cycles
 SCF Done:  E(RHF) =  -1268.73588260     A.U. after   16 cycles
 SCF Done:  E(RHF) =  -1268.73723547     A.U. after   16 cycles
 SCF Done:  E(RHF) =  -1268.73600751     A.U. after   17 cycles
 SCF Done:  E(RHF) =  -1268.73796739     A.U. after   16 cycles
 SCF Done:  E(RHF) =  -1268.73803600     A.U. after   12 cycles
 SCF Done:  E(RHF) =  -1268.73807026     A.U. after   12 cycles
 SCF Done:  E(RHF) =  -1268.73808167     A.U. after   12 cycles
 SCF Done:  E(RHF) =  -1268.73808497     A.U. after   12 cycles
 SCF Done:  E(RHF) =  -1268.73808583     A.U. after   10 cycles
 SCF Done:  E(RHF) =  -1268.73808601     A.U. after    8 cycles
 SCF Done:  E(RHF) =  -1268.73808608     A.U. after    8 cycles
 SCF Done:  E(RHF) =  -1268.73808611     A.U. after    8 cycles
 Optimization completed.
    -- Stationary point found.

                         Standard orientation:
 ---------------------------------------------------------------------
 Center     Atomic      Atomic             Coordinates (Angstroms)
 Number     Number       Type             X           Y           Z
 ---------------------------------------------------------------------
      1          8           0        1.017365   -0.550765    2.141885
      2          6           0        1.415028    0.292007    1.338523
      3          6           0        2.880238    0.705233    1.418285
      4          7           0        3.682009    0.042832    0.414752
      5          7           0        4.362668    0.772136   -0.515770
      6          7           0        5.051721   -0.005522   -1.244273
      7          6           0        4.862455   -1.308631   -0.814364
      8          6           0        5.403746   -2.507074   -1.281084
      9          6           0        5.027648   -3.657773   -0.634066
     10          6           0        4.127032   -3.622748    0.455540
     11          6           0        3.585503   -2.448859    0.922363
     12          6           0        3.979348   -1.281736    0.258380
     13          7           0        0.615150    0.841041    0.389698
     14          6           0        1.051060    1.907287   -0.534650
     15          6           0        0.788629    3.315047   -0.019823
     16          6           0        1.227286    4.486974   -0.943756
     17          6           0       -0.081738    5.231337   -0.571206
     18          6           0       -0.657336    3.892204   -0.040376
     19          6           0       -0.741083    0.378783    0.277863
     20          6           0       -1.672402    0.651952    1.268343
     21          6           0       -2.979350    0.216509    1.133348
     22          6           0       -3.387462   -0.493622    0.004591
     23          6           0       -2.440857   -0.764892   -0.981136
     24          6           0       -1.129058   -0.340413   -0.842157
     25          6           0       -4.791750   -0.952789   -0.140234
     26          6           0       -5.870576   -0.125231    0.164379
     27          6           0       -7.164340   -0.597571    0.011747
     28          6           0       -7.351322   -1.890756   -0.447463
     29          7           0       -6.327406   -2.690344   -0.739234
     30          6           0       -5.085790   -2.239278   -0.588920
     31          1           0        3.029903    1.764105    1.293732
     32          1           0        3.218305    0.415706    2.401466
     33          1           0        6.083569   -2.512195   -2.108959
     34          1           0        5.416602   -4.603903   -0.954824
     35          1           0        3.855697   -4.546231    0.928956
     36          1           0        2.887908   -2.426955    1.734404
     37          1           0        2.100609    1.786073   -0.753189
     38          1           0        0.523857    1.758388   -1.467081
     39          1           0        1.223682    3.430508    0.967970
     40          1           0        2.164816    4.972993   -0.711882
     41          1           0        1.244186    4.192730   -1.987499
     42          1           0        0.069987    5.955695    0.219125
     43          1           0       -0.618963    5.711534   -1.377154
     44          1           0       -1.280288    3.396185   -0.774856
     45          1           0       -1.192441    3.919126    0.898354
     46          1           0       -1.368689    1.179884    2.149462
     47          1           0       -3.680752    0.411488    1.921211
     48          1           0       -2.729026   -1.300024   -1.864925
     49          1           0       -0.407580   -0.569508   -1.602350
     50          1           0       -5.698939    0.879393    0.499281
     51          1           0       -8.007338    0.024920    0.235719
     52          1           0       -8.331063   -2.298963   -0.585747
     53          1           0       -4.301416   -2.931588   -0.817272
 ---------------------------------------------------------------------

 The electronic state is 1-A.
 Alpha  occ. eigenvalues --  -20.54430 -15.67496 -15.66684 -15.62320 -15.61258
 Alpha  occ. eigenvalues --  -15.57624 -11.38407 -11.31000 -11.30225 -11.29170
 Alpha  occ. eigenvalues --  -11.27935 -11.27934 -11.27898 -11.27471 -11.26445
 Alpha  occ. eigenvalues --  -11.26354 -11.26293 -11.25884 -11.25696 -11.25476
 Alpha  occ. eigenvalues --  -11.25139 -11.25099 -11.24965 -11.24946 -11.24841
 Alpha  occ. eigenvalues --  -11.24761 -11.24435 -11.23063 -11.22941 -11.22853
 Alpha  occ. eigenvalues --   -1.48434  -1.41490  -1.28060  -1.27660  -1.25581
 Alpha  occ. eigenvalues --   -1.18412  -1.17737  -1.14870  -1.10946  -1.07178
 Alpha  occ. eigenvalues --   -1.06733  -1.05358  -1.03718  -1.02704  -1.01530
 Alpha  occ. eigenvalues --   -0.99051  -0.91469  -0.89512  -0.89001  -0.88078
 Alpha  occ. eigenvalues --   -0.87320  -0.85831  -0.84293  -0.84067  -0.81933
 Alpha  occ. eigenvalues --   -0.77868  -0.76531  -0.74174  -0.73476  -0.72948
 Alpha  occ. eigenvalues --   -0.70355  -0.70214  -0.68623  -0.68085  -0.66647
 Alpha  occ. eigenvalues --   -0.66070  -0.66031  -0.65836  -0.63780  -0.63186
 Alpha  occ. eigenvalues --   -0.63050  -0.62680  -0.62350  -0.60453  -0.59781
 Alpha  occ. eigenvalues --   -0.59325  -0.58899  -0.57780  -0.56801  -0.55222
 Alpha  occ. eigenvalues --   -0.55148  -0.54886  -0.54136  -0.53883  -0.52904
 Alpha  occ. eigenvalues --   -0.51769  -0.51523  -0.51116  -0.50501  -0.50149
 Alpha  occ. eigenvalues --   -0.48471  -0.46929  -0.45973  -0.45005  -0.44376
 Alpha  occ. eigenvalues --   -0.43470  -0.42346  -0.40739  -0.39911  -0.38373
 Alpha  occ. eigenvalues --   -0.36732  -0.35023  -0.34504  -0.32724  -0.31598
 Alpha virt. eigenvalues --    0.08929   0.09685   0.12026   0.12895   0.14866
 Alpha virt. eigenvalues --    0.15398   0.17040   0.19626   0.20675   0.23234
 Alpha virt. eigenvalues --    0.23995   0.24283   0.24507   0.25228   0.25931

 Mulliken atomic charges:
              1
     1  O   -0.604366
     2  C    0.779606
     3  C   -0.122201
     4  N   -0.879629
     5  N    0.076772
     6  N   -0.333872
     7  C   -0.012726
     8  C   -0.082939
     9  C   -0.229971
    10  C   -0.209577
    11  C   -0.081147
    12  C    0.437370
    13  N   -0.949465
    14  C   -0.084550
    15  C   -0.183398
    16  C   -0.312540
    17  C   -0.321705
    18  C   -0.297302
    19  C    0.297295
    20  C   -0.138776
    21  C   -0.211153
    22  C   -0.013161
    23  C   -0.204323
    24  C   -0.175912
    25  C   -0.091290
    26  C   -0.140616
    27  C   -0.245174
    28  C    0.058545
    29  N   -0.533057
    30  C    0.060764
    31  H    0.237582
    32  H    0.242442
    33  H    0.241264
    34  H    0.206806
    35  H    0.211114
    36  H    0.279629
    37  H    0.227696
    38  H    0.185288
    39  H    0.161306
    40  H    0.170391
    41  H    0.167143
    42  H    0.166543
    43  H    0.164079
    44  H    0.169289
    45  H    0.162692
    46  H    0.224059
    47  H    0.217203
    48  H    0.221258
    49  H    0.223063
    50  H    0.222769
    51  H    0.214398
    52  H    0.211145
    53  H    0.221340
 Sum of Mulliken atomic charges =   0.00000

 Dipole moment (field-independent basis, Debye):
    X=             -1.1932    Y=              2.8419    Z=              0.6935  Tot=              3.1593
 Quadrupole moment (field-independent basis, Debye-Ang):
   XX=           -182.3637   YY=           -172.3540   ZZ=           -180.4737
   XY=            -26.7311   XZ=              1.5122   YZ=              7.2760

 Normal termination of Gaussian 09 at Sat Aug 27 00:18:17 2022.
