 Gaussian 09, Revision C.01,
 Gaussian 09:  EM64L-G09RevC.01 23-Sep-2011

 ---------------
 #p opt hf/6-31G
 ---------------

 (Enter /opt/gaussian/l101.exe)
 ---------
 Mol27.out
 ---------
 Charge =  0 Multiplicity = 1

 SCF Done:  E(RHF) =  -1679.82327779     A.U. after   17 cycles
 SCF Done:  E(RHF) =  -1679.85993142     A.U. after   15 cycles
 SCF Done:  E(RHF) =  -1679.87056147     A.U. after   17 cycles
 SCF Done:  E(RHF) =  -1679.87223502     A.U. after   16 cycles
 SCF Done:  E(RHF) =  -1679.87253984     A.U. after   16 cycles
 SCF Done:  E(RHF) =  -1679.87250305     A.U. after   15 cycles
 SCF Done:  E(RHF) =  -1679.87364969     A.U. after   14 cycles
 SCF Done:  E(RHF) =  -1679.87390790     A.U. after   13 cycles
 SCF Done:  E(RHF) =  -1679.87398233     A.U. after   13 cycles
 SCF Done:  E(RHF) =  -1679.87400008     A.U. after   12 cycles
 SCF Done:  E(RHF) =  -1679.87401665     A.U. after   12 cycles
 SCF Done:  E(RHF) =  -1679.87402453     A.U. after   12 cycles
 SCF Done:  E(RHF) =  -1679.87402576     A.U. after   10 cycles
 SCF Done:  E(RHF) =  -1679.87402641     A.U. after    9 cycles
 SCF Done:  E(RHF) =  -1679.87402664     A.U. after    9 cycles
 SCF Done:  E(RHF) =  -1679.87402672     A.U. after    9 cycles
 SCF Done:  E(RHF) =  -1679.87402675     A.U. after    8 cycles
 SCF Done:  E(RHF) =  -1679.87402677     A.U. after    8 cycles
 SCF Done:  E(RHF) =  -1679.87402678     A.U. after    8 cycles
 Optimization completed.
    -- Stationary point found.

                         Standard orientation:
 ---------------------------------------------------------------------
 Center     Atomic      Atomic             Coordinates (Angstroms)
 Number     Number       Type             X           Y           Z
 ---------------------------------------------------------------------
      1          8           0        1.209407   -1.347806   -0.333102
      2          6           0        1.338956   -0.248945   -0.849107
      3          6           0        2.717263    0.288333   -1.205939
      4          7           0        3.749881   -0.674215   -0.967481
      5          7           0        4.293112   -1.355654   -2.014084
      6          7           0        5.164830   -2.170660   -1.583172
      7          6           0        5.229814   -2.067676   -0.203113
      8          6           0        6.026337   -2.741437    0.722598
      9          6           0        5.865304   -2.414518    2.046308
     10          6           0        4.925184   -1.437720    2.446523
     11          6           0        4.134551   -0.771605    1.541613
     12          6           0        4.309365   -1.107090    0.196264
     13          7           0        0.260576    0.552575   -1.122400
     14          6           0        0.352361    1.918164   -1.642753
     15          6           0        0.327449    2.958957   -0.562929
     16          6           0       -0.591241    3.918361   -0.385687
     17         16           0       -0.190839    4.926367    1.037902
     18          6           0        1.250340    3.882885    1.251469
     19          7           0        1.363934    2.957054    0.378626
     20          6           0       -1.055153    0.082579   -0.787310
     21          6           0       -1.871250   -0.439881   -1.778704
     22          6           0       -3.154595   -0.862569   -1.473887
     23          6           0       -3.645565   -0.773599   -0.172039
     24          6           0       -2.811117   -0.252067    0.815782
     25          6           0       -1.527793    0.171519    0.512393
     26          6           0       -5.020332   -1.228209    0.155715
     27          6           0       -6.109367   -0.921474   -0.657424
     28          6           0       -7.374688   -1.366457   -0.309401
     29          6           0       -7.523725   -2.107914    0.850835
     30          7           0       -6.489287   -2.408434    1.633416
     31          6           0       -5.274193   -1.985943    1.297861
     32          1           0        2.766569    0.530372   -2.257011
     33          1           0        2.908566    1.186965   -0.635761
     34          1           0        6.729437   -3.481978    0.398628
     35          1           0        6.453525   -2.906424    2.795648
     36          1           0        4.824226   -1.218179    3.491855
     37          1           0        3.410617   -0.046561    1.854340
     38          1           0        1.255140    2.031005   -2.223201
     39          1           0       -0.475938    2.075483   -2.317704
     40          1           0       -1.467202    4.110486   -0.961005
     41          1           0        1.937606    4.051242    2.048624
     42          1           0       -1.493428   -0.536237   -2.778194
     43          1           0       -3.764422   -1.291478   -2.245133
     44          1           0       -3.169927   -0.161937    1.822445
     45          1           0       -0.891721    0.563032    1.280997
     46          1           0       -5.970345   -0.328698   -1.540743
     47          1           0       -8.225689   -1.137255   -0.918938
     48          1           0       -8.480995   -2.470011    1.164058
     49          1           0       -4.476602   -2.276065    1.950728
 ---------------------------------------------------------------------

 The electronic state is 1-A.
 Alpha  occ. eigenvalues --  -92.00865 -20.54133 -15.65791 -15.64872 -15.62120
 Alpha  occ. eigenvalues --  -15.61464 -15.60585 -15.57762 -11.38152 -11.35498
 Alpha  occ. eigenvalues --  -11.31527 -11.31330 -11.31093 -11.30128 -11.29332
 Alpha  occ. eigenvalues --  -11.28848 -11.28089 -11.28061 -11.26695 -11.26641
 Alpha  occ. eigenvalues --  -11.26502 -11.25982 -11.25410 -11.25309 -11.25265
 Alpha  occ. eigenvalues --  -11.25229 -11.25106 -11.24867 -11.24762 -11.24736
 Alpha  occ. eigenvalues --  -11.23643  -9.02748  -6.70849  -6.70732  -6.70458
 Alpha  occ. eigenvalues --   -1.46902  -1.41496  -1.33870  -1.28220  -1.27975
 Alpha  occ. eigenvalues --   -1.24242  -1.18034  -1.17213  -1.11368  -1.10497
 Alpha  occ. eigenvalues --   -1.07699  -1.06749  -1.05776  -1.04581  -1.03976
 Alpha  occ. eigenvalues --   -1.02178  -1.00248  -0.96657  -0.89227  -0.88293
 Alpha  occ. eigenvalues --   -0.87888  -0.85272  -0.84752  -0.84655  -0.84160
 Alpha  occ. eigenvalues --   -0.80967  -0.78865  -0.77246  -0.73819  -0.73336
 Alpha  occ. eigenvalues --   -0.72502  -0.71500  -0.71351  -0.70460  -0.68529
 Alpha  occ. eigenvalues --   -0.67847  -0.66349  -0.65062  -0.64752  -0.63497
 Alpha  occ. eigenvalues --   -0.63106  -0.62936  -0.62241  -0.61417  -0.60839
 Alpha  occ. eigenvalues --   -0.60644  -0.59794  -0.59205  -0.58814  -0.58034
 Alpha  occ. eigenvalues --   -0.57802  -0.55358  -0.55013  -0.54180  -0.53173
 Alpha  occ. eigenvalues --   -0.52826  -0.52159  -0.51775  -0.51327  -0.50643
 Alpha  occ. eigenvalues --   -0.50012  -0.48951  -0.44874  -0.44020  -0.42319
 Alpha  occ. eigenvalues --   -0.41942  -0.41719  -0.40851  -0.40043  -0.39308
 Alpha  occ. eigenvalues --   -0.37867  -0.37266  -0.35280  -0.33177  -0.32241
 Alpha  occ. eigenvalues --   -0.31500
 Alpha virt. eigenvalues --    0.08553   0.09528   0.10413   0.11871   0.12608
 Alpha virt. eigenvalues --    0.14225   0.16134   0.16303   0.17025   0.18739
 Alpha virt. eigenvalues --    0.20692   0.21231   0.22709   0.24109   0.24391

 Mulliken atomic charges:
              1
     1  O   -0.569746
     2  C    0.804619
     3  C   -0.141840
     4  N   -0.884906
     5  N    0.093726
     6  N   -0.338901
     7  C   -0.018856
     8  C   -0.080030
     9  C   -0.233368
    10  C   -0.207608
    11  C   -0.063467
    12  C    0.484818
    13  N   -0.954698
    14  C   -0.101926
    15  C    0.307841
    16  C   -0.589009
    17  S    0.483451
    18  C   -0.240205
    19  N   -0.467755
    20  C    0.289336
    21  C   -0.168277
    22  C   -0.205176
    23  C   -0.010228
    24  C   -0.209915
    25  C   -0.145601
    26  C   -0.092845
    27  C   -0.140847
    28  C   -0.245256
    29  C    0.059179
    30  N   -0.532456
    31  C    0.061795
    32  H    0.240318
    33  H    0.267489
    34  H    0.238399
    35  H    0.201601
    36  H    0.201310
    37  H    0.229403
    38  H    0.205926
    39  H    0.206659
    40  H    0.253332
    41  H    0.253880
    42  H    0.221622
    43  H    0.218622
    44  H    0.221870
    45  H    0.225873
    46  H    0.220670
    47  H    0.214557
    48  H    0.211936
    49  H    0.224682
 Sum of Mulliken atomic charges =   0.00000

 Dipole moment (field-independent basis, Debye):
    X=             -3.3975    Y=              8.4064    Z=              0.0315  Tot=              9.0671
 Quadrupole moment (field-independent basis, Debye-Ang):
   XX=           -190.7555   YY=           -193.9483   ZZ=           -181.0578
   XY=              2.6022   XZ=             38.1140   YZ=             -4.6429

 1\1\GINC-LQCAPF-6\FOpt\RHF\6-31G\C23H18N6O1S1\LQCAPF-6\27-Aug-2022\0\\
 #p opt hf/6-31G\\Mol27.out\\0,1\O,21.3094671895,-7.3282427651,-0.13517
 06621\C,21.8989295241,-8.326673626,0.247202129\C,23.3806603125,-8.2751
 504498,0.5900522098\N,23.9065008435,-6.9458193227,0.512391457\N,24.127
 7430159,-6.2389107464,1.6552686365\N,24.5669897754,-5.0852001363,1.362
 3067877\C,24.6475606136,-4.9741434036,-0.0163036653\C,25.0704604546,-3
 .9157442609,-0.8202245309\C,25.0415972717,-4.1080842982,-2.1793380055\
 C,24.5955208037,-5.3297559832,-2.7331111677\C,24.1744029908,-6.3761543

 Normal termination of Gaussian 09 at Sat Aug 27 02:47:47 2022.
