 Gaussian 09, Revision C.01,
 Gaussian 09:  EM64L-G09RevC.01 23-Sep-2011

 ---------------
 #p opt hf/6-31G
 ---------------

 (Enter /opt/gaussian/l101.exe)
 ---------
 Mol23.out
 ---------
 Charge =  0 Multiplicity = 1

 SCF Done:  E(RHF) =  -1229.66986648     A.U. after   17 cycles
 SCF Done:  E(RHF) =  -1229.70023791     A.U. after   15 cycles
 SCF Done:  E(RHF) =  -1229.70549563     A.U. after   16 cycles
 SCF Done:  E(RHF) =  -1229.70637912     A.U. after   14 cycles
 SCF Done:  E(RHF) =  -1229.70651834     A.U. after   16 cycles
 SCF Done:  E(RHF) =  -1229.70750657     A.U. after   14 cycles
 SCF Done:  E(RHF) =  -1229.70817257     A.U. after   15 cycles
 SCF Done:  E(RHF) =  -1229.70936024     A.U. after   17 cycles
 SCF Done:  E(RHF) =  -1229.70834456     A.U. after   18 cycles
 SCF Done:  E(RHF) =  -1229.71050104     A.U. after   17 cycles
 SCF Done:  E(RHF) =  -1229.71171294     A.U. after   14 cycles
 SCF Done:  E(RHF) =  -1229.71178779     A.U. after   13 cycles
 SCF Done:  E(RHF) =  -1229.71182062     A.U. after   12 cycles
 SCF Done:  E(RHF) =  -1229.71183222     A.U. after   12 cycles
 SCF Done:  E(RHF) =  -1229.71183644     A.U. after   12 cycles
 SCF Done:  E(RHF) =  -1229.71183845     A.U. after   10 cycles
 SCF Done:  E(RHF) =  -1229.71183916     A.U. after    9 cycles
 SCF Done:  E(RHF) =  -1229.71183930     A.U. after    9 cycles
 SCF Done:  E(RHF) =  -1229.71183934     A.U. after    8 cycles
 SCF Done:  E(RHF) =  -1229.71183936     A.U. after    8 cycles
 Optimization completed.
    -- Stationary point found.

                         Standard orientation:
 ---------------------------------------------------------------------
 Center     Atomic      Atomic             Coordinates (Angstroms)
 Number     Number       Type             X           Y           Z
 ---------------------------------------------------------------------
      1          8           0        1.321681   -0.762210   -0.448907
      2          6           0        1.419714    0.454909   -0.516742
      3          6           0        2.788385    1.111781   -0.642821
      4          7           0        3.848875    0.157879   -0.763682
      5          7           0        4.497440    0.033519   -1.957620
      6          7           0        5.398475   -0.852559   -1.860117
      7          6           0        5.383027   -1.368225   -0.574334
      8          6           0        6.178839   -2.347750    0.018957
      9          6           0        5.930224   -2.647495    1.335396
     10          6           0        4.902802   -1.990559    2.049526
     11          6           0        4.111382   -1.028060    1.470710
     12          6           0        4.376186   -0.722899    0.132886
     13          7           0        0.334812    1.282634   -0.465866
     14          6           0        0.408800    2.753013   -0.473271
     15          6           0        0.395880    3.370293    0.905689
     16          6           0       -0.017812    4.811664    1.066094
     17          6           0       -0.902787    3.713474    1.588468
     18          6           0       -0.972456    0.696003   -0.358858
     19          6           0       -1.414541    0.158649    0.840060
     20          6           0       -2.685969   -0.380726    0.933514
     21          6           0       -3.542945   -0.392820   -0.166638
     22          6           0       -3.085050    0.147400   -1.366713
     23          6           0       -1.810376    0.682457   -1.462977
     24          6           0       -4.905726   -0.972343   -0.063223
     25          6           0       -5.138596   -2.191656    0.569946
     26          6           0       -6.428358   -2.693261    0.640535
     27          6           0       -7.459381   -1.963557    0.072049
     28          7           0       -7.247380   -0.797017   -0.533828
     29          6           0       -6.010437   -0.313894   -0.599593
     30          1           0        2.832837    1.718990   -1.533801
     31          1           0        2.968118    1.755692    0.209856
     32          1           0        6.948288   -2.837188   -0.543193
     33          1           0        6.514701   -3.394211    1.835493
     34          1           0        4.732798   -2.261585    3.073537
     35          1           0        3.316775   -0.558149    2.013300
     36          1           0        1.293444    3.066460   -1.008062
     37          1           0       -0.435101    3.117003   -1.044660
     38          1           0        1.191855    3.031915    1.544827
     39          1           0        0.517807    5.420919    1.767468
     40          1           0       -0.340217    5.346470    0.192231
     41          1           0       -1.817745    3.508977    1.067112
     42          1           0       -0.971972    3.572809    2.649557
     43          1           0       -0.764635    0.159966    1.691869
     44          1           0       -3.020578   -0.777832    1.872195
     45          1           0       -3.712773    0.122861   -2.236073
     46          1           0       -1.459205    1.070527   -2.399549
     47          1           0       -4.319050   -2.747476    0.982450
     48          1           0       -6.627893   -3.632171    1.116795
     49          1           0       -8.471139   -2.311849    0.097669
     50          1           0       -5.900144    0.635964   -1.081935
 ---------------------------------------------------------------------

 The electronic state is 1-A.
 Alpha  occ. eigenvalues --  -20.54396 -15.66405 -15.65518 -15.61332 -15.61199
 Alpha  occ. eigenvalues --  -15.57749 -11.38537 -11.31326 -11.29854 -11.29475
 Alpha  occ. eigenvalues --  -11.29320 -11.28097 -11.28002 -11.26571 -11.26536
 Alpha  occ. eigenvalues --  -11.26505 -11.26394 -11.25911 -11.25392 -11.25308
 Alpha  occ. eigenvalues --  -11.25253 -11.25244 -11.25215 -11.25198 -11.25125
 Alpha  occ. eigenvalues --  -11.25085 -11.24705 -11.24518 -11.24111  -1.47483
 Alpha  occ. eigenvalues --   -1.41708  -1.28191  -1.27990  -1.24909  -1.18309
 Alpha  occ. eigenvalues --   -1.17767  -1.17186  -1.11096  -1.07196  -1.06330
 Alpha  occ. eigenvalues --   -1.05115  -1.03920  -1.02578  -1.01307  -0.98557
 Alpha  occ. eigenvalues --   -0.89274  -0.88808  -0.87805  -0.85370  -0.84889
 Alpha  occ. eigenvalues --   -0.84841  -0.84207  -0.82085  -0.81254  -0.77586
 Alpha  occ. eigenvalues --   -0.73794  -0.72982  -0.72447  -0.72129  -0.71165
 Alpha  occ. eigenvalues --   -0.69072  -0.68833  -0.67115  -0.66397  -0.65611
 Alpha  occ. eigenvalues --   -0.65191  -0.64321  -0.63366  -0.63178  -0.62775
 Alpha  occ. eigenvalues --   -0.61915  -0.61133  -0.60667  -0.58846  -0.58491
 Alpha  occ. eigenvalues --   -0.57848  -0.56317  -0.55389  -0.54844  -0.53741
 Alpha  occ. eigenvalues --   -0.53407  -0.53357  -0.52520  -0.51832  -0.51349
 Alpha  occ. eigenvalues --   -0.50727  -0.50445  -0.49497  -0.45065  -0.44054
 Alpha  occ. eigenvalues --   -0.43401  -0.42913  -0.42309  -0.40903  -0.40027
 Alpha  occ. eigenvalues --   -0.38627  -0.37002  -0.35239  -0.33719  -0.32212
 Alpha  occ. eigenvalues --   -0.31887
 Alpha virt. eigenvalues --    0.09578   0.09911   0.11916   0.12710   0.15645
 Alpha virt. eigenvalues --    0.15935   0.17426   0.19505   0.20712   0.22811
 Alpha virt. eigenvalues --    0.23115   0.24038   0.24449   0.24676   0.25791

 Mulliken atomic charges:
              1
     1  O   -0.576378
     2  C    0.793572
     3  C   -0.122454
     4  N   -0.888692
     5  N    0.092424
     6  N   -0.334934
     7  C   -0.022401
     8  C   -0.078956
     9  C   -0.233481
    10  C   -0.207135
    11  C   -0.058836
    12  C    0.493100
    13  N   -0.967189
    14  C   -0.056506
    15  C   -0.200911
    16  C   -0.350590
    17  C   -0.324429
    18  C    0.295199
    19  C   -0.138283
    20  C   -0.211453
    21  C   -0.013068
    22  C   -0.202263
    23  C   -0.172914
    24  C   -0.093383
    25  C   -0.138730
    26  C   -0.245474
    27  C    0.058680
    28  N   -0.533273
    29  C    0.059685
    30  H    0.254180
    31  H    0.219269
    32  H    0.240281
    33  H    0.203604
    34  H    0.203499
    35  H    0.220871
    36  H    0.180097
    37  H    0.191319
    38  H    0.178186
    39  H    0.185189
    40  H    0.179081
    41  H    0.189094
    42  H    0.182969
    43  H    0.217973
    44  H    0.216362
    45  H    0.223093
    46  H    0.220598
    47  H    0.229196
    48  H    0.215940
    49  H    0.211594
    50  H    0.216681
 Sum of Mulliken atomic charges =   0.00000

 Dipole moment (field-independent basis, Debye):
    X=             -1.0790    Y=              3.2516    Z=              5.2403  Tot=              6.2608
 Quadrupole moment (field-independent basis, Debye-Ang):
   XX=           -201.0118   YY=           -154.3435   ZZ=           -169.9554
   XY=             11.1958   XZ=             14.2429   YZ=            -11.0538

 Normal termination of Gaussian 09 at Fri Aug 26 23:46:58 2022.
