 Gaussian 09, Revision C.01,
 Gaussian 09:  EM64L-G09RevC.01 23-Sep-2011

 ---------------
 #p opt hf/6-31G
 ---------------

 (Enter /opt/gaussian/l101.exe)
 ---------
 Mol26.out
 ---------
 Charge =  0 Multiplicity = 1

 SCF Done:  E(RHF) =  -1343.52649718     A.U. after   17 cycles
 SCF Done:  E(RHF) =  -1343.55997313     A.U. after   15 cycles
 SCF Done:  E(RHF) =  -1343.56758465     A.U. after   16 cycles
 SCF Done:  E(RHF) =  -1343.57001679     A.U. after   16 cycles
 SCF Done:  E(RHF) =  -1343.57206180     A.U. after   16 cycles
 SCF Done:  E(RHF) =  -1343.57335502     A.U. after   15 cycles
 SCF Done:  E(RHF) =  -1343.57474294     A.U. after   14 cycles
 SCF Done:  E(RHF) =  -1343.57544733     A.U. after   14 cycles
 SCF Done:  E(RHF) =  -1343.57584224     A.U. after   14 cycles
 SCF Done:  E(RHF) =  -1343.57653477     A.U. after   14 cycles
 SCF Done:  E(RHF) =  -1343.57735844     A.U. after   14 cycles
 SCF Done:  E(RHF) =  -1343.57740302     A.U. after   14 cycles
 SCF Done:  E(RHF) =  -1343.57755327     A.U. after   12 cycles
 SCF Done:  E(RHF) =  -1343.57756595     A.U. after   12 cycles
 SCF Done:  E(RHF) =  -1343.57757123     A.U. after   11 cycles
 SCF Done:  E(RHF) =  -1343.57757292     A.U. after   10 cycles
 SCF Done:  E(RHF) =  -1343.57757433     A.U. after   12 cycles
 SCF Done:  E(RHF) =  -1343.57757495     A.U. after   10 cycles
 SCF Done:  E(RHF) =  -1343.57757513     A.U. after   10 cycles
 SCF Done:  E(RHF) =  -1343.57757521     A.U. after    8 cycles
 Optimization completed.
    -- Stationary point found.

                         Standard orientation:
 ---------------------------------------------------------------------
 Center     Atomic      Atomic             Coordinates (Angstroms)
 Number     Number       Type             X           Y           Z
 ---------------------------------------------------------------------
      1          8           0        0.984227   -1.217787   -0.381143
      2          6           0        1.171237   -0.039761   -0.644229
      3          6           0        2.574713    0.470695   -0.956663
      4          7           0        3.535683   -0.589488   -0.969151
      5          7           0        3.889484   -1.161522   -2.153786
      6          7           0        4.701793   -2.111626   -1.940482
      7          6           0        4.916359   -2.219110   -0.575720
      8          6           0        5.719931   -3.096721    0.150857
      9          6           0        5.732988   -2.953727    1.516599
     10          6           0        4.959720   -1.955995    2.151317
     11          6           0        4.163387   -1.088565    1.442603
     12          6           0        4.156918   -1.240803    0.053612
     13          7           0        0.147225    0.871651   -0.668694
     14          6           0        0.320808    2.309251   -0.894095
     15          6           0        0.117062    3.171237    0.363891
     16          6           0        0.566389    4.624177    0.085216
     17          6           0        2.074083    4.619403    0.427687
     18          8           0        2.317867    3.364040    1.107744
     19          6           0        1.059689    2.783975    1.500435
     20          6           0       -1.198515    0.407485   -0.473592
     21          6           0       -2.079527    0.388771   -1.544675
     22          6           0       -3.390222   -0.021809   -1.365129
     23          6           0       -3.846590   -0.429603   -0.112976
     24          6           0       -2.947608   -0.417156    0.952750
     25          6           0       -1.638266   -0.002774    0.775744
     26          6           0       -5.250294   -0.872382    0.079688
     27          6           0       -6.322341   -0.180660   -0.480302
     28          6           0       -7.616034   -0.631125   -0.271544
     29          6           0       -7.809591   -1.765503    0.499103
     30          7           0       -6.791908   -2.434862    1.036756
     31          6           0       -5.549986   -2.006287    0.833071
     32          1           0        2.592253    0.910756   -1.942855
     33          1           0        2.875375    1.229633   -0.245801
     34          1           0        6.297231   -3.847202   -0.350321
     35          1           0        6.334404   -3.605859    2.118599
     36          1           0        4.995986   -1.878339    3.220736
     37          1           0        3.577270   -0.339332    1.935562
     38          1           0        1.303920    2.494003   -1.294790
     39          1           0       -0.387041    2.625722   -1.649862
     40          1           0       -0.918418    3.122793    0.673409
     41          1           0        0.380731    4.925338   -0.938530
     42          1           0        0.028698    5.311590    0.725895
     43          1           0        2.708850    4.642011   -0.444348
     44          1           0        2.349408    5.434937    1.080210
     45          1           0        0.733088    3.206529    2.443611
     46          1           0        1.206528    1.724845    1.625453
     47          1           0       -1.734849    0.672065   -2.520344
     48          1           0       -4.050608   -0.055531   -2.209806
     49          1           0       -3.275199   -0.717728    1.928770
     50          1           0       -0.955618   -0.014387    1.601508
     51          1           0       -6.146886    0.707053   -1.056650
     52          1           0       -8.454250   -0.110651   -0.689587
     53          1           0       -8.789675   -2.149673    0.692551
     54          1           0       -4.769753   -2.595744    1.269410
 ---------------------------------------------------------------------

 The electronic state is 1-A.
 Alpha  occ. eigenvalues --  -20.57575 -20.54275 -15.65807 -15.64893 -15.61439
 Alpha  occ. eigenvalues --  -15.60619 -15.57814 -11.38303 -11.30442 -11.29857
 Alpha  occ. eigenvalues --  -11.29821 -11.29806 -11.29607 -11.28959 -11.28147
 Alpha  occ. eigenvalues --  -11.28114 -11.26771 -11.26704 -11.26570 -11.26440
 Alpha  occ. eigenvalues --  -11.26029 -11.25704 -11.25586 -11.25436 -11.25410
 Alpha  occ. eigenvalues --  -11.25364 -11.25276 -11.24977 -11.24838 -11.24817
 Alpha  occ. eigenvalues --  -11.23677  -1.46944  -1.41606  -1.39467  -1.28277
 Alpha  occ. eigenvalues --   -1.28049  -1.24329  -1.18171  -1.17285  -1.11722
 Alpha  occ. eigenvalues --   -1.10689  -1.07179  -1.05876  -1.04661  -1.04162
 Alpha  occ. eigenvalues --   -1.03320  -1.02249  -1.00330  -0.96679  -0.89328
 Alpha  occ. eigenvalues --   -0.88361  -0.87965  -0.84963  -0.84898  -0.84728
 Alpha  occ. eigenvalues --   -0.84258  -0.81879  -0.81046  -0.77702  -0.73909
 Alpha  occ. eigenvalues --   -0.73481  -0.71988  -0.71506  -0.70949  -0.70512
 Alpha  occ. eigenvalues --   -0.70273  -0.68421  -0.67854  -0.65918  -0.65115
 Alpha  occ. eigenvalues --   -0.64466  -0.63580  -0.63206  -0.62999  -0.62790
 Alpha  occ. eigenvalues --   -0.61546  -0.61128  -0.60761  -0.60443  -0.59421
 Alpha  occ. eigenvalues --   -0.58445  -0.58042  -0.57340  -0.55575  -0.55379
 Alpha  occ. eigenvalues --   -0.54326  -0.53266  -0.52754  -0.52224  -0.52132
 Alpha  occ. eigenvalues --   -0.51527  -0.50996  -0.50838  -0.50496  -0.50077
 Alpha  occ. eigenvalues --   -0.48945  -0.48108  -0.44178  -0.43610  -0.42361
 Alpha  occ. eigenvalues --   -0.41728  -0.41056  -0.40202  -0.38786  -0.37129
 Alpha  occ. eigenvalues --   -0.35497  -0.33215  -0.32172  -0.31566
 Alpha virt. eigenvalues --    0.09359   0.10362   0.11809   0.12435   0.15822
 Alpha virt. eigenvalues --    0.16292   0.17401   0.18903   0.21081   0.21417
 Alpha virt. eigenvalues --    0.22632   0.23631   0.24105   0.24341   0.24903

 Mulliken atomic charges:
              1
     1  O   -0.570481
     2  C    0.791526
     3  C   -0.153028
     4  N   -0.880009
     5  N    0.097467
     6  N   -0.337490
     7  C   -0.018488
     8  C   -0.079197
     9  C   -0.233455
    10  C   -0.206257
    11  C   -0.066500
    12  C    0.484698
    13  N   -0.979127
    14  C   -0.034377
    15  C   -0.232056
    16  C   -0.383989
    17  C    0.038509
    18  O   -0.710314
    19  C    0.029931
    20  C    0.293791
    21  C   -0.175140
    22  C   -0.202847
    23  C   -0.012374
    24  C   -0.208128
    25  C   -0.151453
    26  C   -0.092440
    27  C   -0.140916
    28  C   -0.245276
    29  C    0.059241
    30  N   -0.532168
    31  C    0.061578
    32  H    0.244260
    33  H    0.267186
    34  H    0.239146
    35  H    0.202326
    36  H    0.203150
    37  H    0.225953
    38  H    0.187108
    39  H    0.191143
    40  H    0.196010
    41  H    0.179738
    42  H    0.187313
    43  H    0.175751
    44  H    0.178224
    45  H    0.171761
    46  H    0.182668
    47  H    0.220307
    48  H    0.218884
    49  H    0.222807
    50  H    0.222028
    51  H    0.220888
    52  H    0.214703
    53  H    0.212185
    54  H    0.225227
 Sum of Mulliken atomic charges =   0.00000

 Dipole moment (field-independent basis, Debye):
    X=             -3.3826    Y=              9.1505    Z=              1.6849  Tot=              9.9001
 Quadrupole moment (field-independent basis, Debye-Ang):
   XX=           -186.9561   YY=           -178.6188   ZZ=           -183.3918
   XY=            -11.3223   XZ=             26.3364   YZ=            -12.1990

 Normal termination of Gaussian 09 at Sat Aug 27 02:20:48 2022.
