 Gaussian 09, Revision C.01,
 Gaussian 09:  EM64L-G09RevC.01 23-Sep-2011

 ---------------
 #p opt hf/6-31G
 ---------------

 (Enter /opt/gaussian/l101.exe)
 ---------
 Mol22.out
 ---------
 Charge =  0 Multiplicity = 1

 SCF Done:  E(RHF) =  -1269.88924298     A.U. after   17 cycles
 SCF Done:  E(RHF) =  -1269.92253952     A.U. after   15 cycles
 SCF Done:  E(RHF) =  -1269.92822909     A.U. after   14 cycles
 SCF Done:  E(RHF) =  -1269.92805382     A.U. after   15 cycles
 SCF Done:  E(RHF) =  -1269.92931452     A.U. after   16 cycles
 SCF Done:  E(RHF) =  -1269.93078723     A.U. after   14 cycles
 SCF Done:  E(RHF) =  -1269.93149006     A.U. after   16 cycles
 SCF Done:  E(RHF) =  -1269.93225817     A.U. after   17 cycles
 SCF Done:  E(RHF) =  -1269.93285550     A.U. after   17 cycles
 SCF Done:  E(RHF) =  -1269.93354437     A.U. after   14 cycles
 SCF Done:  E(RHF) =  -1269.93507503     A.U. after   13 cycles
 SCF Done:  E(RHF) =  -1269.93519665     A.U. after   13 cycles
 SCF Done:  E(RHF) =  -1269.93525556     A.U. after   14 cycles
 SCF Done:  E(RHF) =  -1269.93526225     A.U. after   13 cycles
 SCF Done:  E(RHF) =  -1269.93526859     A.U. after   12 cycles
 SCF Done:  E(RHF) =  -1269.93526947     A.U. after   10 cycles
 SCF Done:  E(RHF) =  -1269.93527004     A.U. after   11 cycles
 SCF Done:  E(RHF) =  -1269.93527024     A.U. after   11 cycles
 SCF Done:  E(RHF) =  -1269.93527030     A.U. after    8 cycles
 SCF Done:  E(RHF) =  -1269.93527032     A.U. after    7 cycles
 Optimization completed.
    -- Stationary point found.

                         Standard orientation:
 ---------------------------------------------------------------------
 Center     Atomic      Atomic             Coordinates (Angstroms)
 Number     Number       Type             X           Y           Z
 ---------------------------------------------------------------------
      1          6           0        1.695963    5.150096   -0.123769
      2          6           0        0.394856    4.613691    0.492284
      3          6           0        0.155977    5.246996    1.870067
      4          6           0        0.385185    3.077659    0.606809
      5          6           0        0.397973    2.350808   -0.742035
      6          7           0        0.262088    0.890525   -0.605503
      7          6           0        1.309181    0.014565   -0.587902
      8          8           0        1.160213   -1.186005   -0.407939
      9          6           0        2.702544    0.597168   -0.786345
     10          7           0        3.720683   -0.408497   -0.820282
     11          7           0        4.345061   -0.683063   -2.001746
     12          7           0        5.207879   -1.594324   -1.823344
     13          6           0        5.188933   -1.975131   -0.491412
     14          6           0        5.949508   -2.924118    0.191019
     15          6           0        5.707343   -3.076616    1.533718
     16          6           0        4.720687   -2.304301    2.187313
     17          6           0        3.964039   -1.370843    1.521012
     18          6           0        4.222083   -1.216202    0.156272
     19          6           0       -1.070000    0.377483   -0.444654
     20          6           0       -1.512627   -0.080087    0.787151
     21          6           0       -2.808346   -0.545971    0.932041
     22          6           0       -3.689879   -0.562301   -0.147939
     23          6           0       -3.231552   -0.103237   -1.381453
     24          6           0       -1.933499    0.357656   -1.529346
     25          6           0       -5.078599   -1.062265    0.010431
     26          6           0       -5.361044   -2.236811    0.705061
     27          6           0       -6.673579   -2.664398    0.825487
     28          6           0       -7.677269   -1.907180    0.244220
     29          7           0       -7.417793   -0.782878   -0.420223
     30          6           0       -6.158880   -0.370592   -0.533841
     31          1           0        2.554750    4.850592    0.470178
     32          1           0        1.849437    4.797574   -1.137317
     33          1           0        1.683114    6.233549   -0.159807
     34          1           0       -0.431008    4.904995   -0.154940
     35          1           0        0.952344    4.983275    2.559639
     36          1           0        0.123373    6.328426    1.799790
     37          1           0       -0.782056    4.912884    2.299504
     38          1           0        1.236634    2.756917    1.203592
     39          1           0       -0.504307    2.771002    1.146958
     40          1           0       -0.429565    2.697098   -1.346638
     41          1           0        1.295135    2.577527   -1.295132
     42          1           0        2.761558    1.111657   -1.733201
     43          1           0        2.918361    1.312760   -0.002178
     44          1           0        6.688302   -3.502664   -0.325786
     45          1           0        6.265698   -3.794199    2.101710
     46          1           0        4.554392   -2.461291    3.235484
     47          1           0        3.199947   -0.811480    2.021027
     48          1           0       -0.842731   -0.081666    1.623545
     49          1           0       -3.140927   -0.881821    1.895020
     50          1           0       -3.879616   -0.133941   -2.235553
     51          1           0       -1.584816    0.682809   -2.490394
     52          1           0       -4.562849   -2.816405    1.126627
     53          1           0       -6.911550   -3.568225    1.349557
     54          1           0       -8.705178   -2.198898    0.306838
     55          1           0       -6.009556    0.548817   -1.062459
 ---------------------------------------------------------------------

 The electronic state is 1-A.
 Alpha  occ. eigenvalues --  -20.54353 -15.66381 -15.65492 -15.61351 -15.61173
 Alpha  occ. eigenvalues --  -15.57754 -11.38508 -11.31272 -11.29455 -11.29407
 Alpha  occ. eigenvalues --  -11.29343 -11.28103 -11.28008 -11.26592 -11.26518
 Alpha  occ. eigenvalues --  -11.26515 -11.26403 -11.25384 -11.25347 -11.25281
 Alpha  occ. eigenvalues --  -11.25244 -11.25233 -11.25202 -11.25168 -11.25142
 Alpha  occ. eigenvalues --  -11.25141 -11.24369 -11.24099 -11.22954 -11.22607
 Alpha  occ. eigenvalues --   -1.47462  -1.41666  -1.28193  -1.27925  -1.24883
 Alpha  occ. eigenvalues --   -1.18011  -1.17725  -1.11974  -1.10952  -1.07193
 Alpha  occ. eigenvalues --   -1.06320  -1.05114  -1.03973  -1.02826  -1.02365
 Alpha  occ. eigenvalues --   -0.99709  -0.95377  -0.90197  -0.89262  -0.88795
 Alpha  occ. eigenvalues --   -0.87730  -0.85218  -0.84622  -0.84315  -0.81265
 Alpha  occ. eigenvalues --   -0.79534  -0.77721  -0.73789  -0.73133  -0.72210
 Alpha  occ. eigenvalues --   -0.71916  -0.70265  -0.68691  -0.67882  -0.66961
 Alpha  occ. eigenvalues --   -0.65815  -0.65561  -0.64967  -0.63537  -0.63237
 Alpha  occ. eigenvalues --   -0.62829  -0.62277  -0.61957  -0.61120  -0.60909
 Alpha  occ. eigenvalues --   -0.60687  -0.59089  -0.58140  -0.57801  -0.56356
 Alpha  occ. eigenvalues --   -0.55509  -0.55290  -0.54564  -0.53744  -0.53410
 Alpha  occ. eigenvalues --   -0.52806  -0.52449  -0.51787  -0.51400  -0.50757
 Alpha  occ. eigenvalues --   -0.50452  -0.49516  -0.48531  -0.47767  -0.47741
 Alpha  occ. eigenvalues --   -0.44264  -0.42902  -0.42290  -0.40934  -0.40055
 Alpha  occ. eigenvalues --   -0.38583  -0.36970  -0.35294  -0.33702  -0.32209
 Alpha  occ. eigenvalues --   -0.31873
 Alpha virt. eigenvalues --    0.09550   0.09920   0.11906   0.12636   0.15605
 Alpha virt. eigenvalues --    0.15867   0.17528   0.19105   0.20725   0.21741
 Alpha virt. eigenvalues --    0.23004   0.23741   0.24436   0.24621   0.24932

 Mulliken atomic charges:
              1
     1  C   -0.446883
     2  C   -0.193282
     3  C   -0.439537
     4  C   -0.275460
     5  C   -0.063990
     6  N   -0.972787
     7  C    0.795309
     8  O   -0.577634
     9  C   -0.122619
    10  N   -0.889212
    11  N    0.092765
    12  N   -0.335124
    13  C   -0.022257
    14  C   -0.078950
    15  C   -0.233526
    16  C   -0.207062
    17  C   -0.059413
    18  C    0.493027
    19  C    0.291629
    20  C   -0.144203
    21  C   -0.209402
    22  C   -0.013260
    23  C   -0.201528
    24  C   -0.172170
    25  C   -0.093492
    26  C   -0.138726
    27  C   -0.245498
    28  C    0.058732
    29  N   -0.533303
    30  C    0.059797
    31  H    0.149695
    32  H    0.149229
    33  H    0.164342
    34  H    0.161479
    35  H    0.150061
    36  H    0.158245
    37  H    0.157183
    38  H    0.145317
    39  H    0.177456
    40  H    0.192652
    41  H    0.175133
    42  H    0.253970
    43  H    0.220404
    44  H    0.240241
    45  H    0.203552
    46  H    0.203502
    47  H    0.220913
    48  H    0.219466
    49  H    0.217036
    50  H    0.223235
    51  H    0.220952
    52  H    0.229330
    53  H    0.216036
    54  H    0.211635
    55  H    0.216997
 Sum of Mulliken atomic charges =   0.00000

 Dipole moment (field-independent basis, Debye):
    X=             -0.8986    Y=              3.8994    Z=              4.7748  Tot=              6.2299
 Quadrupole moment (field-independent basis, Debye-Ang):
   XX=           -207.8514   YY=           -166.3717   ZZ=           -178.2771
   XY=             14.7974   XZ=             12.4149   YZ=            -14.9415

 Normal termination of Gaussian 09 at Fri Aug 26 23:19:01 2022.
