 Gaussian 09, Revision C.01,
 Gaussian 09:  EM64L-G09RevC.01 23-Sep-2011

 ---------------
 #p opt hf/6-31G
 ---------------

 (Enter /opt/gaussian/l101.exe)
 ---------
 Mol21.out
 ---------
 Charge =  0 Multiplicity = 1

 SCF Done:  E(RHF) =  -1641.96063205     A.U. after   17 cycles
 SCF Done:  E(RHF) =  -1642.00123531     A.U. after   15 cycles
 SCF Done:  E(RHF) =  -1642.01360356     A.U. after   15 cycles
 SCF Done:  E(RHF) =  -1642.01485173     A.U. after   16 cycles
 SCF Done:  E(RHF) =  -1642.01598972     A.U. after   14 cycles
 SCF Done:  E(RHF) =  -1642.01612060     A.U. after   15 cycles
 SCF Done:  E(RHF) =  -1642.01585888     A.U. after   15 cycles
 SCF Done:  E(RHF) =  -1642.01659537     A.U. after   14 cycles
 SCF Done:  E(RHF) =  -1642.01675792     A.U. after   13 cycles
 SCF Done:  E(RHF) =  -1642.01678765     A.U. after   13 cycles
 SCF Done:  E(RHF) =  -1642.01687213     A.U. after   12 cycles
 SCF Done:  E(RHF) =  -1642.01688376     A.U. after   12 cycles
 SCF Done:  E(RHF) =  -1642.01689160     A.U. after   12 cycles
 SCF Done:  E(RHF) =  -1642.01689473     A.U. after   12 cycles
 SCF Done:  E(RHF) =  -1642.01689621     A.U. after   12 cycles
 SCF Done:  E(RHF) =  -1642.01689712     A.U. after   12 cycles
 SCF Done:  E(RHF) =  -1642.01689788     A.U. after   10 cycles
 SCF Done:  E(RHF) =  -1642.01689839     A.U. after   12 cycles
 SCF Done:  E(RHF) =  -1642.01689853     A.U. after   10 cycles
 SCF Done:  E(RHF) =  -1642.01689856     A.U. after    8 cycles
 Optimization completed.
    -- Stationary point found.

                         Standard orientation:
 ---------------------------------------------------------------------
 Center     Atomic      Atomic             Coordinates (Angstroms)
 Number     Number       Type             X           Y           Z
 ---------------------------------------------------------------------
      1          8           0        0.759500   -1.406678   -0.002017
      2          6           0        0.895528   -0.372003   -0.636303
      3          6           0        2.265624    0.027041   -1.172506
      4          7           0        3.252464   -0.984021   -0.945210
      5          7           0        3.635074   -1.790401   -1.975780
      6          7           0        4.490293   -2.630064   -1.561884
      7          6           0        4.708855   -2.417844   -0.210253
      8          6           0        5.553616   -3.071456    0.686320
      9          6           0        5.558927   -2.625131    1.984721
     10          6           0        4.735211   -1.550092    2.388388
     11          6           0        3.897678   -0.903172    1.512023
     12          6           0        3.902576   -1.360312    0.191532
     13          7           0       -0.147193    0.478329   -0.901354
     14          6           0        0.041576    1.774221   -1.556094
     15          6           0        0.580680    2.871874   -0.667716
     16          6           0        0.961766    4.159773   -1.214552
     17          6           0        1.410812    5.029719   -0.298052
     18         16           0        1.404340    4.323850    1.343791
     19          6           0        0.756133    2.800443    0.663303
     20          6           0       -1.491067    0.092454   -0.561400
     21          6           0       -2.304691    0.954207    0.160059
     22          6           0       -3.618780    0.609680    0.432520
     23          6           0       -4.145272   -0.605754    0.006574
     24          6           0       -3.316844   -1.464793   -0.714705
     25          6           0       -2.009130   -1.119415   -1.000880
     26          6           0       -5.528262   -0.994176    0.297296
     27          6           0       -6.452014   -0.405124    1.106869
     28          7           0       -7.585991   -1.184429    1.018849
     29          6           0       -7.309837   -2.209880    0.169053
     30          7           0       -6.092108   -2.125982   -0.277987
     31          1           0        2.217914    0.167656   -2.241807
     32          1           0        2.584721    0.958444   -0.725097
     33          1           0        6.166509   -3.887304    0.360111
     34          1           0        6.190571   -3.096418    2.711538
     35          1           0        4.762708   -1.236726    3.414028
     36          1           0        3.263459   -0.102094    1.833452
     37          1           0        0.689918    1.666752   -2.417848
     38          1           0       -0.921530    2.072031   -1.946195
     39          1           0        0.890829    4.395142   -2.257864
     40          1           0        1.749460    6.030077   -0.446369
     41          1           0        0.546989    1.978998    1.311087
     42          1           0       -1.922233    1.892898    0.508159
     43          1           0       -4.229366    1.301694    0.979950
     44          1           0       -3.711140   -2.400688   -1.052650
     45          1           0       -1.387021   -1.798233   -1.546337
     46          1           0       -6.408200    0.459543    1.725556
     47          1           0       -8.014881   -2.967267   -0.080750
     48          1           0       -8.440416   -1.028271    1.492894
 ---------------------------------------------------------------------

 The electronic state is 1-A.
 Alpha  occ. eigenvalues --  -91.98524 -20.54363 -15.65969 -15.65066 -15.63271
 Alpha  occ. eigenvalues --  -15.61551 -15.60782 -15.56075 -11.38282 -11.31167
 Alpha  occ. eigenvalues --  -11.30679 -11.30633 -11.29450 -11.29049 -11.28896
 Alpha  occ. eigenvalues --  -11.28548 -11.27795 -11.27721 -11.26549 -11.26521
 Alpha  occ. eigenvalues --  -11.26124 -11.24994 -11.24933 -11.24867 -11.24855
 Alpha  occ. eigenvalues --  -11.24118 -11.23977 -11.23723 -11.23400 -11.22885
 Alpha  occ. eigenvalues --   -9.00305  -6.68436  -6.68302  -6.68039  -1.47075
 Alpha  occ. eigenvalues --   -1.41636  -1.37043  -1.28071  -1.24480  -1.19716
 Alpha  occ. eigenvalues --   -1.19073  -1.17363  -1.15919  -1.07102  -1.05994
 Alpha  occ. eigenvalues --   -1.05088  -1.04227  -1.02423  -1.01854  -1.01189
 Alpha  occ. eigenvalues --   -0.99296  -0.94742  -0.88546  -0.88109  -0.85397
 Alpha  occ. eigenvalues --   -0.84621  -0.82847  -0.82115  -0.80094  -0.79216
 Alpha  occ. eigenvalues --   -0.77477  -0.76589  -0.75593  -0.73103  -0.72121
 Alpha  occ. eigenvalues --   -0.71839  -0.70575  -0.69011  -0.66212  -0.65209
 Alpha  occ. eigenvalues --   -0.65150  -0.64176  -0.63529  -0.62708  -0.62124
 Alpha  occ. eigenvalues --   -0.61635  -0.61413  -0.61318  -0.60420  -0.59951
 Alpha  occ. eigenvalues --   -0.59503  -0.58935  -0.58382  -0.56208  -0.54175
 Alpha  occ. eigenvalues --   -0.53249  -0.52961  -0.52702  -0.52499  -0.51656
 Alpha  occ. eigenvalues --   -0.51265  -0.50180  -0.49558  -0.49054  -0.47964
 Alpha  occ. eigenvalues --   -0.44185  -0.43009  -0.42660  -0.42538  -0.41901
 Alpha  occ. eigenvalues --   -0.39819  -0.36449  -0.36105  -0.35230  -0.33755
 Alpha  occ. eigenvalues --   -0.33300  -0.31666  -0.28856
 Alpha virt. eigenvalues --    0.10263   0.10823   0.11463   0.14205   0.16184
 Alpha virt. eigenvalues --    0.16599   0.17504   0.18582   0.19102   0.20951
 Alpha virt. eigenvalues --    0.21418   0.21849   0.23670   0.23965   0.24041

 Mulliken atomic charges:
              1
     1  O   -0.569090
     2  C    0.786671
     3  C   -0.130393
     4  N   -0.883754
     5  N    0.093695
     6  N   -0.336394
     7  C   -0.020421
     8  C   -0.079158
     9  C   -0.233409
    10  C   -0.206321
    11  C   -0.061736
    12  C    0.488895
    13  N   -0.983237
    14  C   -0.081191
    15  C    0.069254
    16  C   -0.104060
    17  C   -0.552118
    18  S    0.475390
    19  C   -0.603141
    20  C    0.319877
    21  C   -0.217489
    22  C   -0.199235
    23  C    0.015590
    24  C   -0.206038
    25  C   -0.146686
    26  C    0.008019
    27  C    0.173148
    28  N   -0.915648
    29  C    0.377615
    30  N   -0.559144
    31  H    0.248092
    32  H    0.238538
    33  H    0.239299
    34  H    0.202769
    35  H    0.204119
    36  H    0.223305
    37  H    0.191268
    38  H    0.226588
    39  H    0.222082
    40  H    0.237508
    41  H    0.250356
    42  H    0.222364
    43  H    0.200915
    44  H    0.259571
    45  H    0.234206
    46  H    0.246494
    47  H    0.239085
    48  H    0.393948
 Sum of Mulliken atomic charges =   0.00000

 Dipole moment (field-independent basis, Debye):
    X=             -5.6142    Y=              7.0386    Z=              2.5391  Tot=              9.3545
 Quadrupole moment (field-independent basis, Debye-Ang):
   XX=           -135.2668   YY=           -183.2234   ZZ=           -178.8962
   XY=              9.2113   XZ=             -3.3821   YZ=            -16.8240

 1\1\GINC-LQCAPF-6\FOpt\RHF\6-31G\C22H18N6O1S1\LQCAPF-6\26-Aug-2022\0\\
 #p opt hf/6-31G\\Mol21.out\\0,1\O,20.9348731713,-7.9626504635,-2.12762
 6443\C,21.375818352,-8.8685898252,-1.4375413559\C,22.7796695265,-8.775
 1663817,-0.8506964527\N,23.3917740326,-7.5075363485,-1.1080018718\N,23
 .4515552299,-6.578074473,-0.1123923025\N,24.0021922519,-5.5230863942,-
 0.5500474694\C,24.3293532126,-5.7085044128,-1.8835769159\C,24.94907394
 05,-4.8527656732,-2.7937038873\C,25.1488864097,-5.3266881972,-4.066713
 0522\C,24.7358134033,-6.6277757241,-4.4323718833\C,24.1215161422,-7.47

 Normal termination of Gaussian 09 at Fri Aug 26 22:43:21 2022.
