 Gaussian 09, Revision C.01,
 Gaussian 09:  EM64L-G09RevC.01 23-Sep-2011

 ---------------
 #p opt hf/6-31G
 ---------------

 (Enter /opt/gaussian/l101.exe)
 ---------
 Mol28.out
 ---------
 Charge =  0 Multiplicity = 1

 SCF Done:  E(RHF) =  -1802.15684188     A.U. after   17 cycles
 SCF Done:  E(RHF) =  -1802.19146734     A.U. after   15 cycles
 SCF Done:  E(RHF) =  -1802.19545328     A.U. after   17 cycles
 SCF Done:  E(RHF) =  -1802.19777364     A.U. after   17 cycles
 SCF Done:  E(RHF) =  -1802.19820716     A.U. after   15 cycles
 SCF Done:  E(RHF) =  -1802.20075576     A.U. after   16 cycles
 SCF Done:  E(RHF) =  -1802.20143534     A.U. after   14 cycles
 SCF Done:  E(RHF) =  -1802.20147288     A.U. after   16 cycles
 SCF Done:  E(RHF) =  -1802.20193476     A.U. after   14 cycles
 SCF Done:  E(RHF) =  -1802.20202046     A.U. after   13 cycles
 SCF Done:  E(RHF) =  -1802.20203698     A.U. after   12 cycles
 SCF Done:  E(RHF) =  -1802.20204416     A.U. after   12 cycles
 SCF Done:  E(RHF) =  -1802.20204764     A.U. after   11 cycles
 SCF Done:  E(RHF) =  -1802.20204862     A.U. after   11 cycles
 SCF Done:  E(RHF) =  -1802.20204904     A.U. after    9 cycles
 SCF Done:  E(RHF) =  -1802.20204936     A.U. after    9 cycles
 SCF Done:  E(RHF) =  -1802.20204947     A.U. after    9 cycles
 SCF Done:  E(RHF) =  -1802.20204951     A.U. after    9 cycles
 SCF Done:  E(RHF) =  -1802.20204953     A.U. after    9 cycles
 SCF Done:  E(RHF) =  -1802.20204954     A.U. after    8 cycles
 Optimization completed.
    -- Stationary point found.

                         Standard orientation:
 ---------------------------------------------------------------------
 Center     Atomic      Atomic             Coordinates (Angstroms)
 Number     Number       Type             X           Y           Z
 ---------------------------------------------------------------------
      1         17           0       -3.169149    5.854082   -0.521280
      2          6           0       -2.350342    4.372709    0.113114
      3          6           0       -2.382212    4.116641    1.469857
      4          6           0       -1.752319    2.975247    1.938220
      5          6           0       -1.103965    2.113867    1.061598
      6          6           0       -1.078376    2.384523   -0.301127
      7          6           0       -1.716643    3.530061   -0.773337
      8          6           0       -0.364901    1.493866   -1.308933
      9          7           0        0.049817    0.181426   -0.809462
     10          6           0       -0.843281   -0.844857   -0.620694
     11          8           0       -0.530287   -1.904024   -0.100882
     12          6           0       -2.273250   -0.611748   -1.094182
     13          7           0       -3.086908   -1.777690   -0.943582
     14          7           0       -3.333376   -2.568604   -2.027257
     15          7           0       -4.034710   -3.563394   -1.674077
     16          6           0       -4.280103   -3.479118   -0.312629
     17          6           0       -4.999675   -4.321482    0.533806
     18          6           0       -5.072797   -3.968410    1.858888
     19          6           0       -4.438442   -2.799959    2.336900
     20          6           0       -3.725109   -1.965896    1.509563
     21          6           0       -3.659960   -2.330495    0.162415
     22          6           0        1.445940   -0.021964   -0.536732
     23          6           0        2.161753    0.923857    0.184222
     24          6           0        3.521870    0.761700    0.398708
     25          6           0        4.197184   -0.353091   -0.087810
     26          6           0        3.464817   -1.299222   -0.805069
     27          6           0        2.110912   -1.136333   -1.035219
     28          6           0        5.651801   -0.529940    0.148016
     29          6           0        6.227985   -0.295168    1.394801
     30          6           0        7.591461   -0.473002    1.566388
     31          6           0        8.350667   -0.886486    0.484260
     32          7           0        7.809930   -1.112356   -0.711335
     33          6           0        6.502342   -0.939092   -0.877468
     34          1           0       -2.884331    4.786376    2.136837
     35          1           0       -1.764619    2.756926    2.988092
     36          1           0       -0.618261    1.237511    1.442827
     37          1           0       -1.719112    3.761919   -1.820522
     38          1           0       -0.992536    1.375699   -2.183431
     39          1           0        0.529266    1.993232   -1.652757
     40          1           0       -2.717856    0.215436   -0.558057
     41          1           0       -2.277702   -0.368955   -2.146430
     42          1           0       -5.469912   -5.204702    0.151240
     43          1           0       -5.613647   -4.584904    2.549243
     44          1           0       -4.513689   -2.563265    3.380556
     45          1           0       -3.234394   -1.091097    1.886039
     46          1           0        1.670316    1.791662    0.576693
     47          1           0        4.058727    1.518774    0.936935
     48          1           0        3.952352   -2.179518   -1.175912
     49          1           0        1.570087   -1.885268   -1.573802
     50          1           0        5.614067    0.003180    2.222431
     51          1           0        8.052787   -0.304011    2.518678
     52          1           0        9.406336   -1.041593    0.568347
     53          1           0        6.124529   -1.117531   -1.863532
 ---------------------------------------------------------------------

 The electronic state is 1-A.
 Alpha  occ. eigenvalues -- -104.83482 -20.55650 -15.66691 -15.65805 -15.62907
 Alpha  occ. eigenvalues --  -15.61512 -15.57823 -11.39483 -11.33963 -11.31691
 Alpha  occ. eigenvalues --  -11.31560 -11.30391 -11.29811 -11.29161 -11.28164
 Alpha  occ. eigenvalues --  -11.28088 -11.27963 -11.27787 -11.27640 -11.27228
 Alpha  occ. eigenvalues --  -11.26836 -11.26665 -11.26601 -11.26526 -11.25752
 Alpha  occ. eigenvalues --  -11.25747 -11.25607 -11.25567 -11.25552 -11.25324
 Alpha  occ. eigenvalues --  -11.25267 -11.25113 -11.24387 -10.57405  -8.04254
 Alpha  occ. eigenvalues --   -8.03865  -8.03848  -1.47817  -1.42935  -1.29423
 Alpha  occ. eigenvalues --   -1.28261  -1.25307  -1.22035  -1.18325  -1.18059
 Alpha  occ. eigenvalues --   -1.13977  -1.11368  -1.08630  -1.07397  -1.06566
 Alpha  occ. eigenvalues --   -1.05454  -1.04265  -1.03123  -1.02848  -1.00965
 Alpha  occ. eigenvalues --   -0.98171  -0.89803  -0.89127  -0.87951  -0.87022
 Alpha  occ. eigenvalues --   -0.85710  -0.85415  -0.84678  -0.83411  -0.81646
 Alpha  occ. eigenvalues --   -0.78077  -0.74382  -0.74048  -0.73438  -0.72747
 Alpha  occ. eigenvalues --   -0.72409  -0.71395  -0.69053  -0.68354  -0.67870
 Alpha  occ. eigenvalues --   -0.66503  -0.65887  -0.65720  -0.64680  -0.64162
 Alpha  occ. eigenvalues --   -0.63982  -0.63078  -0.62744  -0.62235  -0.61561
 Alpha  occ. eigenvalues --   -0.61180  -0.60893  -0.60251  -0.59047  -0.57985
 Alpha  occ. eigenvalues --   -0.56480  -0.56010  -0.55739  -0.55124  -0.54024
 Alpha  occ. eigenvalues --   -0.53740  -0.53309  -0.52528  -0.51854  -0.51681
 Alpha  occ. eigenvalues --   -0.50925  -0.50885  -0.49783  -0.48094  -0.46941
 Alpha  occ. eigenvalues --   -0.45221  -0.43489  -0.42948  -0.42584  -0.40637
 Alpha  occ. eigenvalues --   -0.39015  -0.37389  -0.36928  -0.36397  -0.35508
 Alpha  occ. eigenvalues --   -0.34021  -0.32411  -0.31554
 Alpha virt. eigenvalues --    0.09228   0.09536   0.09939   0.10489   0.11810
 Alpha virt. eigenvalues --    0.12394   0.14776   0.15657   0.16498   0.17788
 Alpha virt. eigenvalues --    0.19903   0.20754   0.22941   0.23976   0.24442

 Mulliken atomic charges:
              1
     1  Cl   0.107857
     2  C   -0.315933
     3  C   -0.150579
     4  C   -0.192978
     5  C   -0.211187
     6  C   -0.031251
     7  C   -0.163470
     8  C   -0.081692
     9  N   -0.990685
    10  C    0.785759
    11  O   -0.567760
    12  C   -0.130493
    13  N   -0.884143
    14  N    0.095984
    15  N   -0.333357
    16  C   -0.020191
    17  C   -0.077766
    18  C   -0.233623
    19  C   -0.204521
    20  C   -0.065716
    21  C    0.488830
    22  C    0.327359
    23  C   -0.214010
    24  C   -0.202297
    25  C   -0.017225
    26  C   -0.207595
    27  C   -0.144421
    28  C   -0.089216
    29  C   -0.139459
    30  C   -0.245158
    31  C    0.058937
    32  N   -0.532304
    33  C    0.060486
    34  H    0.244042
    35  H    0.222392
    36  H    0.242235
    37  H    0.241971
    38  H    0.197245
    39  H    0.230480
    40  H    0.237474
    41  H    0.251089
    42  H    0.241733
    43  H    0.204918
    44  H    0.204444
    45  H    0.220536
    46  H    0.223220
    47  H    0.217515
    48  H    0.226395
    49  H    0.245434
    50  H    0.223880
    51  H    0.215201
    52  H    0.212039
    53  H    0.219575
 Sum of Mulliken atomic charges =   0.00000

 Dipole moment (field-independent basis, Debye):
    X=              0.2566    Y=              4.8154    Z=              4.9625  Tot=              6.9196
 Quadrupole moment (field-independent basis, Debye-Ang):
   XX=           -215.6522   YY=           -223.7513   ZZ=           -190.4234
   XY=              5.5547   XZ=             -0.9276   YZ=             -7.7518

 Normal termination of Gaussian 09 at Sat Aug 27 03:21:55 2022.
