 Gaussian 09, Revision C.01,
 Gaussian 09:  EM64L-G09RevC.01 23-Sep-2011

 ---------------
 #p opt hf/6-31G
 ---------------

 (Enter /opt/gaussian/l101.exe)
 ---------
 Mol20.out
 ---------
 Charge =  0 Multiplicity = 1

 SCF Done:  E(RHF) =  -1680.96759434     A.U. after   17 cycles
 SCF Done:  E(RHF) =  -1681.01026326     A.U. after   15 cycles
 SCF Done:  E(RHF) =  -1681.02390635     A.U. after   15 cycles
 SCF Done:  E(RHF) =  -1681.02478382     A.U. after   16 cycles
 SCF Done:  E(RHF) =  -1681.02608225     A.U. after   14 cycles
 SCF Done:  E(RHF) =  -1681.02568760     A.U. after   15 cycles
 SCF Done:  E(RHF) =  -1681.02667988     A.U. after   14 cycles
 SCF Done:  E(RHF) =  -1681.02695691     A.U. after   14 cycles
 SCF Done:  E(RHF) =  -1681.02716517     A.U. after   16 cycles
 SCF Done:  E(RHF) =  -1681.02729540     A.U. after   16 cycles
 SCF Done:  E(RHF) =  -1681.02773619     A.U. after   10 cycles
 SCF Done:  E(RHF) =  -1681.02773662     A.U. after   10 cycles
 SCF Done:  E(RHF) =  -1681.02773700     A.U. after   10 cycles
 SCF Done:  E(RHF) =  -1681.02773735     A.U. after    9 cycles
 SCF Done:  E(RHF) =  -1681.02773761     A.U. after    9 cycles
 SCF Done:  E(RHF) =  -1681.02773782     A.U. after   10 cycles
 SCF Done:  E(RHF) =  -1681.02773805     A.U. after   10 cycles
 SCF Done:  E(RHF) =  -1681.02773825     A.U. after   10 cycles
 SCF Done:  E(RHF) =  -1681.02773832     A.U. after    9 cycles
 SCF Done:  E(RHF) =  -1681.02773834     A.U. after    7 cycles
 Optimization completed.
    -- Stationary point found.

                         Standard orientation:
 ---------------------------------------------------------------------
 Center     Atomic      Atomic             Coordinates (Angstroms)
 Number     Number       Type             X           Y           Z
 ---------------------------------------------------------------------
      1          6           0       -8.748096   -0.740888    0.947718
      2          7           0       -7.427892   -0.944687    0.384160
      3          6           0       -7.058511   -1.904537   -0.504407
      4          7           0       -5.795414   -1.814521   -0.806215
      5          6           0       -5.291796   -0.742899   -0.086977
      6          6           0       -6.300048   -0.200510    0.654350
      7          6           0       -3.881411   -0.357284   -0.186671
      8          6           0       -2.989799   -1.157001   -0.900647
      9          6           0       -1.655064   -0.811844   -1.009919
     10          6           0       -1.175602    0.338485   -0.398232
     11          6           0       -2.052320    1.139634    0.318150
     12          6           0       -3.391053    0.797868    0.416033
     13          7           0        0.203301    0.727080   -0.549919
     14          6           0        0.470699    2.002426   -1.233120
     15          6           0        1.220939    3.022517   -0.407936
     16          6           0        1.057282    3.190665    1.022511
     17          6           0        1.788715    4.190607    1.538854
     18         16           0        2.753879    5.023896    0.287656
     19          6           0        2.086682    3.906336   -0.936551
     20          6           0        1.186526   -0.142026   -0.165906
     21          8           0        0.945243   -1.201470    0.398533
     22          6           0        2.634632    0.253646   -0.416754
     23          7           0        3.483743   -0.889842   -0.604886
     24          7           0        3.959901   -1.153495   -1.855888
     25          7           0        4.720532   -2.168000   -1.815374
     26          6           0        4.782369   -2.629245   -0.511368
     27          6           0        5.490166   -3.699086    0.038387
     28          6           0        5.362114   -3.908782    1.388117
     29          6           0        4.535953   -3.076861    2.179151
     30          6           0        3.830666   -2.026561    1.645370
     31          6           0        3.976857   -1.810921    0.271515
     32          1           0       -8.723284   -0.843023    2.023895
     33          1           0       -9.124861    0.239903    0.692124
     34          1           0       -9.421161   -1.483671    0.546781
     35          1           0       -7.740261   -2.627177   -0.889115
     36          1           0       -6.320046    0.616239    1.337478
     37          1           0       -3.356254   -2.045857   -1.370931
     38          1           0       -0.982852   -1.444407   -1.552408
     39          1           0       -1.699755    2.032668    0.795487
     40          1           0       -4.049623    1.442385    0.965697
     41          1           0        0.994715    1.828326   -2.165880
     42          1           0       -0.495763    2.402824   -1.499653
     43          1           0        0.423233    2.565627    1.615846
     44          1           0        1.845456    4.510509    2.554669
     45          1           0        2.393702    3.997982   -1.954969
     46          1           0        2.749725    0.858612   -1.297452
     47          1           0        2.982844    0.834175    0.428832
     48          1           0        6.103703   -4.321012   -0.581697
     49          1           0        5.885336   -4.718282    1.857686
     50          1           0        4.449986   -3.284619    3.228130
     51          1           0        3.172569   -1.429951    2.241565
 ---------------------------------------------------------------------

 The electronic state is 1-A.
 Alpha  occ. eigenvalues --  -91.98429 -20.53988 -15.65856 -15.65017 -15.63630
 Alpha  occ. eigenvalues --  -15.61396 -15.60730 -15.55626 -11.38073 -11.30608
 Alpha  occ. eigenvalues --  -11.30340 -11.30218 -11.29337 -11.29230 -11.28879
 Alpha  occ. eigenvalues --  -11.28811 -11.28419 -11.27451 -11.27208 -11.26298
 Alpha  occ. eigenvalues --  -11.26248 -11.25952 -11.24969 -11.24585 -11.24529
 Alpha  occ. eigenvalues --  -11.24391 -11.24320 -11.24049 -11.23499 -11.23455
 Alpha  occ. eigenvalues --  -11.22868  -9.00213  -6.68343  -6.68210  -6.67948
 Alpha  occ. eigenvalues --   -1.46928  -1.41301  -1.37195  -1.27695  -1.24208
 Alpha  occ. eigenvalues --   -1.20592  -1.19575  -1.17086  -1.16002  -1.06914
 Alpha  occ. eigenvalues --   -1.05768  -1.04903  -1.04162  -1.02632  -1.01918
 Alpha  occ. eigenvalues --   -1.00934  -1.00421  -0.97375  -0.94426  -0.88204
 Alpha  occ. eigenvalues --   -0.87490  -0.84747  -0.84359  -0.82091  -0.80109
 Alpha  occ. eigenvalues --   -0.79452  -0.79274  -0.77118  -0.75246  -0.73809
 Alpha  occ. eigenvalues --   -0.72487  -0.71772  -0.71589  -0.70354  -0.68914
 Alpha  occ. eigenvalues --   -0.66357  -0.66298  -0.65116  -0.64844  -0.64009
 Alpha  occ. eigenvalues --   -0.62684  -0.62457  -0.62144  -0.61662  -0.61080
 Alpha  occ. eigenvalues --   -0.60037  -0.59523  -0.59286  -0.58615  -0.58137
 Alpha  occ. eigenvalues --   -0.57448  -0.56862  -0.55862  -0.53860  -0.53119
 Alpha  occ. eigenvalues --   -0.52863  -0.52517  -0.52303  -0.51524  -0.50940
 Alpha  occ. eigenvalues --   -0.49936  -0.49581  -0.48871  -0.47842  -0.44091
 Alpha  occ. eigenvalues --   -0.42552  -0.42365  -0.41841  -0.41446  -0.38898
 Alpha  occ. eigenvalues --   -0.36383  -0.35837  -0.35047  -0.33799  -0.33106
 Alpha  occ. eigenvalues --   -0.31324  -0.28751
 Alpha virt. eigenvalues --    0.10426   0.10488   0.11431   0.14081   0.15954
 Alpha virt. eigenvalues --    0.16990   0.17469   0.18523   0.20171   0.21017
 Alpha virt. eigenvalues --    0.21955   0.22073   0.23358   0.24433   0.24812

 Mulliken atomic charges:
              1
     1  C   -0.197249
     2  N   -0.891609
     3  C    0.389478
     4  N   -0.568979
     5  C    0.002993
     6  C    0.194876
     7  C    0.016614
     8  C   -0.205998
     9  C   -0.142860
    10  C    0.302693
    11  C   -0.206108
    12  C   -0.198712
    13  N   -0.973175
    14  C   -0.089245
    15  C    0.053029
    16  C   -0.093187
    17  C   -0.558276
    18  S    0.480252
    19  C   -0.597107
    20  C    0.805028
    21  O   -0.589840
    22  C   -0.118939
    23  N   -0.880327
    24  N    0.083925
    25  N   -0.338149
    26  C   -0.020637
    27  C   -0.081804
    28  C   -0.232048
    29  C   -0.211800
    30  C   -0.049472
    31  C    0.476303
    32  H    0.190687
    33  H    0.189686
    34  H    0.185346
    35  H    0.233285
    36  H    0.241201
    37  H    0.260401
    38  H    0.232371
    39  H    0.207534
    40  H    0.200652
    41  H    0.200462
    42  H    0.229714
    43  H    0.235495
    44  H    0.237199
    45  H    0.235747
    46  H    0.240987
    47  H    0.241126
    48  H    0.237303
    49  H    0.201448
    50  H    0.202891
    51  H    0.236795
 Sum of Mulliken atomic charges =   0.00000

 Dipole moment (field-independent basis, Debye):
    X=             -7.1034    Y=              4.7172    Z=              4.4813  Tot=              9.6329
 Quadrupole moment (field-independent basis, Debye-Ang):
   XX=           -137.4203   YY=           -190.5195   ZZ=           -186.3586
   XY=              0.0142   XZ=              1.3597   YZ=             -5.8095

 1\1\GINC-LQCAPF-6\FOpt\RHF\6-31G\C23H20N6O1S1\LQCAPF-6\26-Aug-2022\0\\
 #p opt hf/6-31G\\Mol20.out\\0,1\C,12.7844519879,-11.0466208431,-2.5165
 269012\N,13.9183067926,-10.3440140146,-1.9483850107\C,13.9079217637,-9
 .1203746089,-1.3568569832\N,15.0971147555,-8.7741300683,-0.9561829442\
 C,15.947280373,-9.8146100982,-1.2937141022\C,15.2213782891,-10.7905885
 502,-1.9108488563\C,17.3795422726,-9.7540374498,-0.9891176338\C,17.934
 2929814,-8.5798196874,-0.4814304691\C,19.2827120848,-8.5002863126,-0.1
 847310114\C,20.1135608408,-9.5917919542,-0.3982909666\C,19.5737853407,

 Normal termination of Gaussian 09 at Fri Aug 26 22:10:45 2022.
