 Gaussian 09, Revision C.01,
 Gaussian 09:  EM64L-G09RevC.01 23-Sep-2011

 ---------------
 #p opt hf/6-31G
 ---------------

 (Enter /opt/gaussian/l101.exe)
 ---------
 Mol37.out
 ---------
 Charge =  0 Multiplicity = 1

 SCF Done:  E(RHF) =  -1780.26867055     A.U. after   17 cycles
 SCF Done:  E(RHF) =  -1780.30351999     A.U. after   15 cycles
 SCF Done:  E(RHF) =  -1780.30971300     A.U. after   15 cycles
 SCF Done:  E(RHF) =  -1780.31022788     A.U. after   16 cycles
 SCF Done:  E(RHF) =  -1780.31052951     A.U. after   14 cycles
 SCF Done:  E(RHF) =  -1780.31128467     A.U. after   14 cycles
 SCF Done:  E(RHF) =  -1780.31149449     A.U. after   14 cycles
 SCF Done:  E(RHF) =  -1780.31160614     A.U. after   14 cycles
 SCF Done:  E(RHF) =  -1780.31169839     A.U. after   14 cycles
 SCF Done:  E(RHF) =  -1780.31179311     A.U. after   16 cycles
 SCF Done:  E(RHF) =  -1780.31197784     A.U. after   13 cycles
 SCF Done:  E(RHF) =  -1780.31200238     A.U. after   12 cycles
 SCF Done:  E(RHF) =  -1780.31200944     A.U. after   12 cycles
 SCF Done:  E(RHF) =  -1780.31201164     A.U. after   10 cycles
 SCF Done:  E(RHF) =  -1780.31201322     A.U. after   11 cycles
 SCF Done:  E(RHF) =  -1780.31201413     A.U. after   10 cycles
 SCF Done:  E(RHF) =  -1780.31201434     A.U. after   10 cycles
 SCF Done:  E(RHF) =  -1780.31201451     A.U. after    8 cycles
 SCF Done:  E(RHF) =  -1780.31201454     A.U. after    8 cycles
 SCF Done:  E(RHF) =  -1780.31201455     A.U. after    8 cycles
 Optimization completed.
    -- Stationary point found.

                         Standard orientation:
 ---------------------------------------------------------------------
 Center     Atomic      Atomic             Coordinates (Angstroms)
 Number     Number       Type             X           Y           Z
 ---------------------------------------------------------------------
      1          6           0       -4.472867    0.227106    0.310929
      2          6           0       -5.113596    1.287038   -0.319555
      3          6           0       -5.142357   -0.964633    0.608777
      4          6           0       -6.460648    1.217280   -0.676787
      5          6           0       -6.469770   -1.020931    0.257968
      6          6           0       -7.128926    0.056687   -0.377229
      7          7           0       -3.196431    0.676897    0.506069
      8          7           0       -4.194014    2.310707   -0.476809
      9          7           0       -3.081820    1.943799    0.011335
     10          6           0       -2.069820    0.069606    1.177144
     11          6           0       -1.490130   -1.060305    0.340124
     12          7           0       -0.315414   -0.881387   -0.307234
     13          8           0       -2.128568   -2.113696    0.262594
     14          6           0        0.164936   -1.955038   -1.203563
     15          6           0        3.353073   -3.724060   -0.184335
     16          6           0        2.904488   -4.705760    0.671689
     17          6           0        2.490549   -2.834263   -0.793817
     18          6           0        1.540288   -4.793265    0.920250
     19          6           0        1.125614   -2.920071   -0.541577
     20          6           0        0.656632   -3.911271    0.319672
     21         17           0        5.128329   -3.594019   -0.524184
     22          6           0        2.343756    1.436427    0.867481
     23          6           0        2.167380    2.535757    0.026668
     24          6           0        1.520851    0.326120    0.772608
     25          6           0        1.143055    2.482988   -0.919597
     26          6           0        0.508531    0.287108   -0.177052
     27          6           0        0.326893    1.369848   -1.026395
     28          6           0        3.031232    3.718835    0.131189
     29          6           0        3.627133    4.237965    1.252701
     30          6           0        3.439205    4.591310   -0.916739
     31          7           0        4.322633    5.326503    0.860958
     32          7           0        4.214706    5.548309   -0.466192
     33          1           0       -4.634543   -1.796732    1.048525
     34          1           0       -6.938350    2.044001   -1.162553
     35          1           0       -7.025376   -1.915574    0.462205
     36          1           0       -8.165520   -0.045874   -0.631069
     37          1           0       -1.365535    0.855024    1.378855
     38          1           0       -2.400930   -0.362546    2.110645
     39          1           0       -0.702544   -2.485115   -1.561817
     40          1           0        0.642789   -1.473952   -2.044455
     41          1           0        3.594655   -5.385045    1.128268
     42          1           0        2.877471   -2.085081   -1.455043
     43          1           0        1.171719   -5.555476    1.578683
     44          1           0       -0.395664   -3.984210    0.510770
     45          1           0        3.141526    1.437142    1.584350
     46          1           0        1.672572   -0.514943    1.420142
     47          1           0        0.965508    3.324511   -1.559465
     48          1           0       -0.466269    1.351280   -1.747275
     49          1           0        3.586445    3.926559    2.271160
     50          1           0        3.205195    4.530590   -1.954468
     51          1           0        4.863175    5.942646    1.412708
 ---------------------------------------------------------------------

 The electronic state is 1-A.
 Alpha  occ. eigenvalues -- -104.82000 -20.54905 -15.66954 -15.66263 -15.65101
 Alpha  occ. eigenvalues --  -15.62044 -15.61807 -15.60981 -11.38965 -11.32061
 Alpha  occ. eigenvalues --  -11.30898 -11.29798 -11.29753 -11.29580 -11.28739
 Alpha  occ. eigenvalues --  -11.27314 -11.27016 -11.26797 -11.26656 -11.26122
 Alpha  occ. eigenvalues --  -11.26101 -11.25961 -11.25728 -11.25668 -11.25474
 Alpha  occ. eigenvalues --  -11.25469 -11.25302 -11.25226 -11.25094 -11.25025
 Alpha  occ. eigenvalues --  -11.24904 -11.24403 -10.55920  -8.02770  -8.02386
 Alpha  occ. eigenvalues --   -8.02369  -1.47937  -1.41983  -1.40869  -1.28423
 Alpha  occ. eigenvalues --   -1.25152  -1.20143  -1.18097  -1.17977  -1.12842
 Alpha  occ. eigenvalues --   -1.12243  -1.09700  -1.07253  -1.06397  -1.04976
 Alpha  occ. eigenvalues --   -1.04342  -1.02409  -1.02227  -1.00941  -0.95974
 Alpha  occ. eigenvalues --   -0.89060  -0.88800  -0.86588  -0.85370  -0.85010
 Alpha  occ. eigenvalues --   -0.83387  -0.83016  -0.81264  -0.80747  -0.77683
 Alpha  occ. eigenvalues --   -0.76224  -0.74811  -0.72655  -0.72215  -0.71762
 Alpha  occ. eigenvalues --   -0.68707  -0.67483  -0.67085  -0.66851  -0.65707
 Alpha  occ. eigenvalues --   -0.65496  -0.64154  -0.63654  -0.62811  -0.62658
 Alpha  occ. eigenvalues --   -0.62419  -0.61994  -0.61356  -0.60772  -0.59454
 Alpha  occ. eigenvalues --   -0.58960  -0.58510  -0.58336  -0.56902  -0.55681
 Alpha  occ. eigenvalues --   -0.54828  -0.53801  -0.53488  -0.53274  -0.52752
 Alpha  occ. eigenvalues --   -0.51521  -0.51244  -0.50800  -0.49986  -0.49680
 Alpha  occ. eigenvalues --   -0.46614  -0.45969  -0.45657  -0.45477  -0.43124
 Alpha  occ. eigenvalues --   -0.42832  -0.40430  -0.39730  -0.37572  -0.36123
 Alpha  occ. eigenvalues --   -0.35282  -0.34506  -0.34086  -0.32331  -0.31505
 Alpha virt. eigenvalues --    0.09356   0.10440   0.11359   0.12214   0.12822
 Alpha virt. eigenvalues --    0.14909   0.16189   0.16485   0.18092   0.20053
 Alpha virt. eigenvalues --    0.22087   0.23503   0.24104   0.24299   0.25603

 Mulliken atomic charges:
              1
     1  C    0.442605
     2  C   -0.016064
     3  C   -0.062235
     4  C   -0.083780
     5  C   -0.212108
     6  C   -0.230024
     7  N   -0.878937
     8  N   -0.336645
     9  N    0.085923
    10  C   -0.104811
    11  C    0.799540
    12  N   -0.923389
    13  O   -0.638111
    14  C   -0.111751
    15  C   -0.317740
    16  C   -0.150146
    17  C   -0.152775
    18  C   -0.200200
    19  C   -0.013208
    20  C   -0.198062
    21  Cl   0.087118
    22  C   -0.214618
    23  C    0.057266
    24  C   -0.166643
    25  C   -0.211398
    26  C    0.219409
    27  C   -0.146221
    28  C   -0.311474
    29  C    0.230984
    30  C    0.080494
    31  N   -0.684829
    32  N   -0.244744
    33  H    0.265271
    34  H    0.239564
    35  H    0.206528
    36  H    0.204600
    37  H    0.253645
    38  H    0.228849
    39  H    0.239946
    40  H    0.196686
    41  H    0.236564
    42  H    0.241713
    43  H    0.214986
    44  H    0.264666
    45  H    0.215618
    46  H    0.231579
    47  H    0.228190
    48  H    0.238039
    49  H    0.257035
    50  H    0.233689
    51  H    0.409404
 Sum of Mulliken atomic charges =   0.00000

 Dipole moment (field-independent basis, Debye):
    X=             -0.2438    Y=             -1.4526    Z=              4.0051  Tot=              4.2674
 Quadrupole moment (field-independent basis, Debye-Ang):
   XX=           -197.2737   YY=           -205.6706   ZZ=           -180.0845
   XY=             16.3623   XZ=             14.7751   YZ=              6.9121

 Normal termination of Gaussian 09 at Tue Aug 30 12:02:08 2022.
