 Gaussian 09, Revision C.01,
 Gaussian 09:  EM64L-G09RevC.01 23-Sep-2011

 ---------------
 #p opt hf/6-31G
 ---------------

 (Enter /opt/gaussian/l101.exe)
 ---------
 Mol31.out
 ---------
 Charge =  0 Multiplicity = 1

 SCF Done:  E(RHF) =  -1900.97875446     A.U. after   16 cycles
 SCF Done:  E(RHF) =  -1901.01296025     A.U. after   15 cycles
 SCF Done:  E(RHF) =  -1901.01998608     A.U. after   16 cycles
 SCF Done:  E(RHF) =  -1901.02119326     A.U. after   16 cycles
 SCF Done:  E(RHF) =  -1901.02137781     A.U. after   16 cycles
 SCF Done:  E(RHF) =  -1901.02184940     A.U. after   14 cycles
 SCF Done:  E(RHF) =  -1901.02234015     A.U. after   13 cycles
 SCF Done:  E(RHF) =  -1901.02242917     A.U. after   15 cycles
 SCF Done:  E(RHF) =  -1901.02250035     A.U. after   15 cycles
 SCF Done:  E(RHF) =  -1901.02254115     A.U. after   12 cycles
 SCF Done:  E(RHF) =  -1901.02802449     A.U. after   14 cycles
 SCF Done:  E(RHF) =  -1901.02806806     A.U. after   13 cycles
 SCF Done:  E(RHF) =  -1901.02808355     A.U. after   12 cycles
 SCF Done:  E(RHF) =  -1901.02808904     A.U. after   12 cycles
 SCF Done:  E(RHF) =  -1901.02809245     A.U. after   12 cycles
 SCF Done:  E(RHF) =  -1901.02809436     A.U. after   12 cycles
 SCF Done:  E(RHF) =  -1901.02809471     A.U. after   10 cycles
 SCF Done:  E(RHF) =  -1901.02809479     A.U. after    8 cycles
 SCF Done:  E(RHF) =  -1901.02809481     A.U. after    8 cycles
 SCF Done:  E(RHF) =  -1901.02809482     A.U. after    8 cycles
 Optimization completed.
    -- Stationary point found.

                         Standard orientation:
 ---------------------------------------------------------------------
 Center     Atomic      Atomic             Coordinates (Angstroms)
 Number     Number       Type             X           Y           Z
 ---------------------------------------------------------------------
      1          9           0       -4.152436    4.492242   -1.049951
      2          6           0       -2.920433    4.004095   -0.702209
      3          6           0       -2.031316    4.857335   -0.090986
      4          6           0       -0.799804    4.334568    0.252018
      5          6           0       -0.461058    3.022318   -0.000409
      6          6           0       -1.385614    2.182467   -0.618844
      7          6           0       -2.633675    2.683139   -0.972429
      8          6           0       -1.036242    0.744419   -0.960154
      9          7           0       -0.397249   -0.014474    0.128400
     10          6           0       -1.098648   -0.543130    1.172062
     11          8           0       -0.560389   -1.148663    2.093766
     12          6           0       -2.615655   -0.406991    1.197298
     13          7           0       -3.255034   -1.353574    0.311704
     14          7           0       -3.993116   -0.918946   -0.751404
     15          7           0       -4.519794   -1.913265   -1.337836
     16          6           0       -4.157271   -3.071872   -0.671424
     17          6           0       -4.488161   -4.404797   -0.919639
     18          6           0       -3.972948   -5.346684   -0.064591
     19          6           0       -3.140338   -4.975568    1.016764
     20          6           0       -2.806030   -3.666688    1.269625
     21          6           0       -3.341000   -2.714580    0.395025
     22          6           0        1.019911   -0.249937    0.052077
     23          6           0        1.538805   -0.970900   -1.013640
     24          6           0        2.904274   -1.179515   -1.117629
     25          6           0        3.779439   -0.684171   -0.153080
     26          6           0        3.242545    0.024272    0.921093
     27          6           0        1.878871    0.240843    1.024610
     28          6           0        5.242163   -0.911206   -0.262287
     29          6           0        5.922667   -0.749797   -1.467381
     30          6           0        7.289250   -0.972766   -1.520213
     31          6           0        7.947462   -1.350355   -0.361541
     32          7           0        7.305868   -1.509322    0.794292
     33          6           0        5.994160   -1.299083    0.845309
     34         17           0        0.404542    5.412478    1.053553
     35          1           0       -2.293323    5.874787    0.105202
     36          1           0        0.507047    2.659903    0.273683
     37          1           0       -3.374549    2.063993   -1.437942
     38          1           0       -1.923081    0.233090   -1.296900
     39          1           0       -0.342558    0.742424   -1.787369
     40          1           0       -2.917297   -0.603153    2.214577
     41          1           0       -2.953855    0.575194    0.915860
     42          1           0       -5.119587   -4.665356   -1.744778
     43          1           0       -4.198408   -6.384193   -0.212378
     44          1           0       -2.754756   -5.744987    1.656852
     45          1           0       -2.158702   -3.390743    2.076842
     46          1           0        0.877569   -1.385764   -1.749802
     47          1           0        3.285517   -1.757385   -1.937007
     48          1           0        3.893809    0.426090    1.672360
     49          1           0        1.482847    0.773696    1.864929
     50          1           0        5.392941   -0.436298   -2.346067
     51          1           0        7.832085   -0.848357   -2.435647
     52          1           0        9.002580   -1.529615   -0.350934
     53          1           0        5.526690   -1.461761    1.794919
 ---------------------------------------------------------------------

 The electronic state is 1-A.
 Alpha  occ. eigenvalues -- -104.83629 -26.31587 -20.55781 -15.68370 -15.67521
 Alpha  occ. eigenvalues --  -15.63256 -15.62766 -15.57944 -11.39555 -11.36291
 Alpha  occ. eigenvalues --  -11.34458 -11.31719 -11.31014 -11.30698 -11.30273
 Alpha  occ. eigenvalues --  -11.29373 -11.28303 -11.28234 -11.28229 -11.27981
 Alpha  occ. eigenvalues --  -11.27570 -11.27323 -11.27019 -11.26835 -11.26712
 Alpha  occ. eigenvalues --  -11.26571 -11.26408 -11.26206 -11.26021 -11.25792
 Alpha  occ. eigenvalues --  -11.25705 -11.25555 -11.25465 -11.25406 -10.57549
 Alpha  occ. eigenvalues --   -8.04399  -8.04004  -8.03988  -1.62908  -1.49281
 Alpha  occ. eigenvalues --   -1.42856  -1.29170  -1.28397  -1.26461  -1.22558
 Alpha  occ. eigenvalues --   -1.19152  -1.18502  -1.14364  -1.11524  -1.08604
 Alpha  occ. eigenvalues --   -1.07824  -1.07252  -1.06042  -1.04551  -1.03600
 Alpha  occ. eigenvalues --   -1.03404  -1.01434  -0.98437  -0.90282  -0.89710
 Alpha  occ. eigenvalues --   -0.88197  -0.86839  -0.86616  -0.85939  -0.84891
 Alpha  occ. eigenvalues --   -0.84411  -0.82692  -0.78725  -0.75323  -0.74588
 Alpha  occ. eigenvalues --   -0.74121  -0.73708  -0.73065  -0.71428  -0.71064
 Alpha  occ. eigenvalues --   -0.69956  -0.69536  -0.68866  -0.68672  -0.67174
 Alpha  occ. eigenvalues --   -0.66716  -0.66359  -0.64078  -0.64003  -0.63449
 Alpha  occ. eigenvalues --   -0.63307  -0.63084  -0.62376  -0.61198  -0.61104
 Alpha  occ. eigenvalues --   -0.60714  -0.60500  -0.59903  -0.58206  -0.57206
 Alpha  occ. eigenvalues --   -0.56353  -0.55694  -0.55540  -0.55154  -0.54717
 Alpha  occ. eigenvalues --   -0.54539  -0.52574  -0.52327  -0.51952  -0.51687
 Alpha  occ. eigenvalues --   -0.51261  -0.50760  -0.48081  -0.47034  -0.46947
 Alpha  occ. eigenvalues --   -0.44380  -0.43394  -0.42172  -0.40702  -0.39277
 Alpha  occ. eigenvalues --   -0.37485  -0.36968  -0.36638  -0.35813  -0.35256
 Alpha  occ. eigenvalues --   -0.33457  -0.32215
 Alpha virt. eigenvalues --    0.08086   0.08880   0.10061   0.10806   0.11676
 Alpha virt. eigenvalues --    0.12138   0.14039   0.14555   0.16299   0.16980
 Alpha virt. eigenvalues --    0.18728   0.23122   0.23563   0.24248   0.24941

 Mulliken atomic charges:
              1
     1  F   -0.448161
     2  C    0.404774
     3  C   -0.167059
     4  C   -0.323274
     5  C   -0.141627
     6  C   -0.020974
     7  C   -0.243826
     8  C   -0.126347
     9  N   -0.953143
    10  C    0.789386
    11  O   -0.590608
    12  C   -0.130335
    13  N   -0.877176
    14  N    0.059814
    15  N   -0.326580
    16  C   -0.012943
    17  C   -0.080770
    18  C   -0.230164
    19  C   -0.207572
    20  C   -0.080769
    21  C    0.438591
    22  C    0.295229
    23  C   -0.182749
    24  C   -0.201146
    25  C   -0.014133
    26  C   -0.208428
    27  C   -0.149054
    28  C   -0.092141
    29  C   -0.139945
    30  C   -0.245238
    31  C    0.059569
    32  N   -0.532157
    33  C    0.061667
    34  Cl   0.120985
    35  H    0.268428
    36  H    0.260071
    37  H    0.278494
    38  H    0.248221
    39  H    0.222874
    40  H    0.246588
    41  H    0.249366
    42  H    0.243788
    43  H    0.209434
    44  H    0.213692
    45  H    0.276135
    46  H    0.222208
    47  H    0.220096
    48  H    0.226676
    49  H    0.234945
    50  H    0.222881
    51  H    0.215901
    52  H    0.212774
    53  H    0.223734
 Sum of Mulliken atomic charges =   0.00000

 Dipole moment (field-independent basis, Debye):
    X=              0.6906    Y=             -1.8524    Z=             -2.4646  Tot=              3.1595
 Quadrupole moment (field-independent basis, Debye-Ang):
   XX=           -226.0645   YY=           -203.4893   ZZ=           -204.9967
   XY=             15.1442   XZ=            -28.7606   YZ=              5.8674

 Normal termination of Gaussian 09 at Sat Aug 27 05:02:24 2022.
