 Gaussian 09, Revision C.01,
 Gaussian 09:  EM64L-G09RevC.01 23-Sep-2011

 ---------------
 #p opt hf/6-31G
 ---------------

 (Enter /opt/gaussian/l101.exe)
 ---------
 Mol34.out
 ---------
 Charge =  0 Multiplicity = 1

 SCF Done:  E(RHF) =  -1818.11975435     A.U. after   17 cycles
 SCF Done:  E(RHF) =  -1818.15542290     A.U. after   15 cycles
 SCF Done:  E(RHF) =  -1818.16109522     A.U. after   17 cycles
 SCF Done:  E(RHF) =  -1818.16191332     A.U. after   17 cycles
 SCF Done:  E(RHF) =  -1818.16356866     A.U. after   15 cycles
 SCF Done:  E(RHF) =  -1818.16533665     A.U. after   16 cycles
 SCF Done:  E(RHF) =  -1818.16603539     A.U. after   15 cycles
 SCF Done:  E(RHF) =  -1818.16615541     A.U. after   16 cycles
 SCF Done:  E(RHF) =  -1818.16646568     A.U. after   13 cycles
 SCF Done:  E(RHF) =  -1818.16653317     A.U. after   13 cycles
 SCF Done:  E(RHF) =  -1818.16656378     A.U. after   12 cycles
 SCF Done:  E(RHF) =  -1818.16656607     A.U. after   12 cycles
 SCF Done:  E(RHF) =  -1818.16656726     A.U. after   10 cycles
 SCF Done:  E(RHF) =  -1818.16656811     A.U. after   10 cycles
 SCF Done:  E(RHF) =  -1818.16656838     A.U. after    9 cycles
 SCF Done:  E(RHF) =  -1818.16656844     A.U. after    8 cycles
 SCF Done:  E(RHF) =  -1818.16656847     A.U. after    8 cycles
 SCF Done:  E(RHF) =  -1818.16656848     A.U. after    9 cycles
 SCF Done:  E(RHF) =  -1818.16656849     A.U. after    8 cycles
 SCF Done:  E(RHF) =  -1818.16656849     A.U. after    8 cycles
 Optimization completed.
    -- Stationary point found.

                         Standard orientation:
 ---------------------------------------------------------------------
 Center     Atomic      Atomic             Coordinates (Angstroms)
 Number     Number       Type             X           Y           Z
 ---------------------------------------------------------------------
      1         17           0       -3.004458    5.968072   -0.425444
      2          6           0       -2.246960    4.434414    0.126460
      3          6           0       -2.282998    4.099458    1.467745
      4          7           0       -1.733232    2.972096    1.899110
      5          6           0       -1.134237    2.149493    1.036321
      6          6           0       -1.058403    2.416400   -0.323195
      7          6           0       -1.639332    3.597811   -0.781037
      8          6           0       -0.367790    1.498911   -1.318419
      9          7           0        0.026428    0.188499   -0.800742
     10          6           0       -0.871310   -0.836994   -0.620405
     11          8           0       -0.555543   -1.904673   -0.122413
     12          6           0       -2.306142   -0.588948   -1.070885
     13          7           0       -3.123768   -1.752767   -0.933130
     14          7           0       -3.399260   -2.511406   -2.033753
     15          7           0       -4.101565   -3.509542   -1.693482
     16          6           0       -4.318768   -3.461322   -0.325364
     17          6           0       -5.028735   -4.321444    0.511347
     18          6           0       -5.072504   -4.004946    1.846845
     19          6           0       -4.418655   -2.855573    2.344531
     20          6           0       -3.714396   -2.004239    1.526997
     21          6           0       -3.679390   -2.331592    0.169155
     22          6           0        1.422603   -0.029944   -0.531643
     23          6           0        2.133099    0.871010    0.248301
     24          6           0        3.491740    0.695007    0.460966
     25          6           0        4.168452   -0.390419   -0.086791
     26          6           0        3.440373   -1.292321   -0.863060
     27          6           0        2.087956   -1.113853   -1.091088
     28          6           0        5.621272   -0.583100    0.148013
     29          6           0        6.188314   -0.426049    1.411110
     30          6           0        7.550346   -0.615899    1.581014
     31          6           0        8.316982   -0.962799    0.480810
     32          7           0        7.784791   -1.114007   -0.730300
     33          6           0        6.478541   -0.929508   -0.894655
     34          1           0       -2.751864    4.731414    2.190635
     35          1           0       -0.708957    1.261420    1.453588
     36          1           0       -1.617396    3.857309   -1.821645
     37          1           0       -1.002866    1.380151   -2.187797
     38          1           0        0.533787    1.977547   -1.672895
     39          1           0       -2.739630    0.229518   -0.512127
     40          1           0       -2.324652   -0.325504   -2.118000
     41          1           0       -5.513978   -5.189753    0.113707
     42          1           0       -5.604844   -4.636102    2.530502
     43          1           0       -4.470779   -2.647256    3.395515
     44          1           0       -3.208714   -1.145302    1.919895
     45          1           0        1.639333    1.713374    0.690217
     46          1           0        4.026006    1.417026    1.047545
     47          1           0        3.929619   -2.150311   -1.280791
     48          1           0        1.547870   -1.828791   -1.675457
     49          1           0        5.568699   -0.178555    2.251162
     50          1           0        8.004895   -0.506572    2.545164
     51          1           0        9.371881   -1.124048    0.562744
     52          1           0        6.107625   -1.046824   -1.892471
 ---------------------------------------------------------------------

 The electronic state is 1-A.
 Alpha  occ. eigenvalues -- -104.84876 -20.56010 -15.66818 -15.65949 -15.63344
 Alpha  occ. eigenvalues --  -15.61656 -15.61519 -15.57929 -11.39845 -11.35033
 Alpha  occ. eigenvalues --  -11.32516 -11.32100 -11.31894 -11.31357 -11.30611
 Alpha  occ. eigenvalues --  -11.30540 -11.30276 -11.29880 -11.28295 -11.28192
 Alpha  occ. eigenvalues --  -11.26893 -11.26874 -11.26763 -11.26648 -11.26049
 Alpha  occ. eigenvalues --  -11.25783 -11.25687 -11.25552 -11.25541 -11.25532
 Alpha  occ. eigenvalues --  -11.25409 -11.25409 -11.24369 -10.58789  -8.05639
 Alpha  occ. eigenvalues --   -8.05242  -8.05224  -1.47938  -1.43324  -1.32333
 Alpha  occ. eigenvalues --   -1.29689  -1.28373  -1.25490  -1.18757  -1.18477
 Alpha  occ. eigenvalues --   -1.18093  -1.13895  -1.11376  -1.07640  -1.06709
 Alpha  occ. eigenvalues --   -1.05963  -1.05576  -1.04466  -1.02992  -1.01742
 Alpha  occ. eigenvalues --   -0.99406  -0.90881  -0.90011  -0.89148  -0.88173
 Alpha  occ. eigenvalues --   -0.87240  -0.85580  -0.84916  -0.84771  -0.81808
 Alpha  occ. eigenvalues --   -0.78509  -0.76225  -0.74653  -0.74247  -0.73419
 Alpha  occ. eigenvalues --   -0.72708  -0.72121  -0.70319  -0.69177  -0.68460
 Alpha  occ. eigenvalues --   -0.67332  -0.65872  -0.65765  -0.64746  -0.64413
 Alpha  occ. eigenvalues --   -0.63625  -0.63225  -0.62678  -0.62489  -0.62160
 Alpha  occ. eigenvalues --   -0.62010  -0.61540  -0.61050  -0.59482  -0.58776
 Alpha  occ. eigenvalues --   -0.58093  -0.56949  -0.56124  -0.55333  -0.54623
 Alpha  occ. eigenvalues --   -0.53996  -0.53634  -0.52543  -0.51968  -0.51155
 Alpha  occ. eigenvalues --   -0.50953  -0.50631  -0.49804  -0.48613  -0.45519
 Alpha  occ. eigenvalues --   -0.44373  -0.43684  -0.42713  -0.42694  -0.41397
 Alpha  occ. eigenvalues --   -0.40748  -0.39186  -0.37954  -0.37077  -0.35764
 Alpha  occ. eigenvalues --   -0.34043  -0.32440  -0.31922
 Alpha virt. eigenvalues --    0.07562   0.09122   0.09423   0.09511   0.11703
 Alpha virt. eigenvalues --    0.12145   0.14551   0.15604   0.15972   0.17315
 Alpha virt. eigenvalues --    0.19443   0.20473   0.22986   0.23715   0.23959

 Mulliken atomic charges:
              1
     1  Cl   0.139989
     2  C   -0.364937
     3  C    0.108644
     4  N   -0.521424
     5  C    0.048313
     6  C   -0.077310
     7  C   -0.113178
     8  C   -0.075683
     9  N   -0.990008
    10  C    0.785686
    11  O   -0.561285
    12  C   -0.129744
    13  N   -0.884773
    14  N    0.093980
    15  N   -0.332323
    16  C   -0.020876
    17  C   -0.078045
    18  C   -0.233267
    19  C   -0.205031
    20  C   -0.067219
    21  C    0.489157
    22  C    0.320886
    23  C   -0.208832
    24  C   -0.202620
    25  C   -0.016179
    26  C   -0.207151
    27  C   -0.142867
    28  C   -0.090522
    29  C   -0.138892
    30  C   -0.245246
    31  C    0.059287
    32  N   -0.532291
    33  C    0.060738
    34  H    0.248165
    35  H    0.247143
    36  H    0.253682
    37  H    0.199185
    38  H    0.233461
    39  H    0.232905
    40  H    0.250223
    41  H    0.241632
    42  H    0.205485
    43  H    0.207783
    44  H    0.227223
    45  H    0.221845
    46  H    0.219656
    47  H    0.227477
    48  H    0.243414
    49  H    0.225878
    50  H    0.216230
    51  H    0.212588
    52  H    0.219054
 Sum of Mulliken atomic charges =   0.00000

 Dipole moment (field-independent basis, Debye):
    X=              0.4804    Y=              5.0109    Z=              2.3943  Tot=              5.5743
 Quadrupole moment (field-independent basis, Debye-Ang):
   XX=           -212.6935   YY=           -216.6540   ZZ=           -198.0213
   XY=              2.9024   XZ=              3.8936   YZ=            -15.7653

 Normal termination of Gaussian 09 at Sat Aug 27 08:09:21 2022.
