 Gaussian 09, Revision C.01,
 Gaussian 09:  EM64L-G09RevC.01 23-Sep-2011

 ---------------
 #p opt hf/6-31G
 ---------------

 (Enter /opt/gaussian/l101.exe)
 ---------
 Mol39.out
 ---------
 Charge =  0 Multiplicity = 1

 SCF Done:  E(RHF) =  -1796.22555798     A.U. after   17 cycles
 SCF Done:  E(RHF) =  -1796.26287653     A.U. after   15 cycles
 SCF Done:  E(RHF) =  -1796.27107014     A.U. after   15 cycles
 SCF Done:  E(RHF) =  -1796.27051512     A.U. after   17 cycles
 SCF Done:  E(RHF) =  -1796.27224552     A.U. after   16 cycles
 SCF Done:  E(RHF) =  -1796.27332748     A.U. after   14 cycles
 SCF Done:  E(RHF) =  -1796.27354765     A.U. after   15 cycles
 SCF Done:  E(RHF) =  -1796.27364629     A.U. after   15 cycles
 SCF Done:  E(RHF) =  -1796.27378086     A.U. after   13 cycles
 SCF Done:  E(RHF) =  -1796.27382149     A.U. after   13 cycles
 SCF Done:  E(RHF) =  -1796.27383938     A.U. after   10 cycles
 SCF Done:  E(RHF) =  -1796.27384092     A.U. after   10 cycles
 SCF Done:  E(RHF) =  -1796.27384120     A.U. after   10 cycles
 SCF Done:  E(RHF) =  -1796.27384145     A.U. after   10 cycles
 SCF Done:  E(RHF) =  -1796.27384160     A.U. after   10 cycles
 SCF Done:  E(RHF) =  -1796.27384166     A.U. after   10 cycles
 SCF Done:  E(RHF) =  -1796.27384168     A.U. after    8 cycles
 SCF Done:  E(RHF) =  -1796.27384169     A.U. after    8 cycles
 SCF Done:  E(RHF) =  -1796.27384170     A.U. after    8 cycles
 SCF Done:  E(RHF) =  -1796.27384170     A.U. after    8 cycles
 Optimization completed.
    -- Stationary point found.

                         Standard orientation:
 ---------------------------------------------------------------------
 Center     Atomic      Atomic             Coordinates (Angstroms)
 Number     Number       Type             X           Y           Z
 ---------------------------------------------------------------------
      1         17           0       -2.789819    6.002811   -0.557587
      2          6           0       -2.068114    4.482568    0.101126
      3          6           0       -2.178266    4.217493    1.452376
      4          6           0       -1.621564    3.046854    1.939662
      5          6           0       -0.967391    2.165380    1.087134
      6          6           0       -0.862576    2.444830   -0.269569
      7          6           0       -1.427375    3.620773   -0.761025
      8          6           0       -0.141551    1.533772   -1.253886
      9          7           0        0.260478    0.227111   -0.730744
     10          6           0       -0.623778   -0.810501   -0.557453
     11          8           0       -0.296096   -1.867698   -0.043530
     12          6           0       -2.053167   -0.587819   -1.033315
     13          7           0       -2.847598   -1.772618   -0.935131
     14          7           0       -3.111479   -2.495432   -2.062457
     15          7           0       -3.803117   -3.512991   -1.759823
     16          6           0       -4.025360   -3.514725   -0.391857
     17          6           0       -4.728170   -4.411586    0.411624
     18          6           0       -4.780821   -4.142392    1.757107
     19          6           0       -4.141741   -3.003815    2.296943
     20          6           0       -3.444365   -2.116968    1.512124
     21          6           0       -3.400669   -2.395502    0.143765
     22          6           0        1.646526    0.026522   -0.428138
     23          6           0        2.338049    0.887107    0.410662
     24          6           0        3.689460    0.686734    0.631963
     25          6           0        4.332040   -0.381938    0.014234
     26          7           0        3.648315   -1.205242   -0.789145
     27          6           0        2.356687   -1.015992   -1.010083
     28          6           0        5.751199   -0.672001    0.185944
     29          6           0        6.697738   -0.001145    0.918986
     30          7           0        7.859652   -0.663976    0.754809
     31          7           0        7.721954   -1.742757   -0.053581
     32          6           0        6.458814   -1.757218   -0.401365
     33          1           0       -2.684248    4.902817    2.100297
     34          1           0       -1.696250    2.820306    2.985191
     35          1           0       -0.540980    1.265383    1.484072
     36          1           0       -1.367407    3.860988   -1.804632
     37          1           0       -0.757459    1.407313   -2.135568
     38          1           0        0.760752    2.023468   -1.591636
     39          1           0       -2.513569    0.211696   -0.468191
     40          1           0       -2.058293   -0.305081   -2.075188
     41          1           0       -5.201333   -5.271279   -0.017989
     42          1           0       -5.307967   -4.803283    2.416251
     43          1           0       -4.199248   -2.833906    3.354629
     44          1           0       -2.946615   -1.268132    1.935407
     45          1           0        1.835492    1.705323    0.886836
     46          1           0        4.226497    1.350511    1.278595
     47          1           0        1.872073   -1.718444   -1.653897
     48          1           0        6.630603    0.872444    1.525730
     49          1           0        6.067176   -2.510088   -1.042520
     50          1           0        8.745407   -0.457493    1.140588
 ---------------------------------------------------------------------

 The electronic state is 1-A.
 Alpha  occ. eigenvalues -- -104.83671 -20.55877 -15.66738 -15.65873 -15.64692
 Alpha  occ. eigenvalues --  -15.63226 -15.61564 -15.60258 -15.58029 -11.39706
 Alpha  occ. eigenvalues --  -11.34187 -11.31884 -11.31858 -11.30553 -11.30360
 Alpha  occ. eigenvalues --  -11.29847 -11.29670 -11.29441 -11.29016 -11.28172
 Alpha  occ. eigenvalues --  -11.28034 -11.27858 -11.27681 -11.27521 -11.26855
 Alpha  occ. eigenvalues --  -11.25960 -11.25917 -11.25748 -11.25601 -11.25545
 Alpha  occ. eigenvalues --  -11.24379 -11.24360 -10.57594  -8.04443  -8.04053
 Alpha  occ. eigenvalues --   -8.04036  -1.47856  -1.43206  -1.40250  -1.30663
 Alpha  occ. eigenvalues --   -1.28115  -1.25367  -1.22228  -1.18100  -1.14285
 Alpha  occ. eigenvalues --   -1.12514  -1.11296  -1.10410  -1.08650  -1.06851
 Alpha  occ. eigenvalues --   -1.05714  -1.03866  -1.03174  -1.01892  -0.98597
 Alpha  occ. eigenvalues --   -0.90951  -0.89169  -0.88984  -0.87236  -0.85570
 Alpha  occ. eigenvalues --   -0.85068  -0.83408  -0.82357  -0.80698  -0.78710
 Alpha  occ. eigenvalues --   -0.76492  -0.74621  -0.73789  -0.72944  -0.72529
 Alpha  occ. eigenvalues --   -0.71972  -0.69637  -0.68753  -0.67324  -0.66321
 Alpha  occ. eigenvalues --   -0.65895  -0.65383  -0.64684  -0.63736  -0.63031
 Alpha  occ. eigenvalues --   -0.62483  -0.62166  -0.62071  -0.61887  -0.61463
 Alpha  occ. eigenvalues --   -0.60643  -0.59234  -0.59084  -0.57517  -0.56912
 Alpha  occ. eigenvalues --   -0.56045  -0.55707  -0.55134  -0.54034  -0.53848
 Alpha  occ. eigenvalues --   -0.53386  -0.52258  -0.50920  -0.49832  -0.48327
 Alpha  occ. eigenvalues --   -0.47146  -0.45449  -0.45276  -0.44495  -0.43638
 Alpha  occ. eigenvalues --   -0.42624  -0.41565  -0.39289  -0.39091  -0.37522
 Alpha  occ. eigenvalues --   -0.37089  -0.36664  -0.34039  -0.32416  -0.30883
 Alpha virt. eigenvalues --    0.09388   0.09506   0.09780   0.10288   0.11146
 Alpha virt. eigenvalues --    0.15298   0.15936   0.16581   0.17657   0.19781
 Alpha virt. eigenvalues --    0.20550   0.22032   0.22504   0.22834   0.24118

 Mulliken atomic charges:
              1
     1  Cl   0.109691
     2  C   -0.315923
     3  C   -0.150753
     4  C   -0.191755
     5  C   -0.215901
     6  C   -0.026885
     7  C   -0.163846
     8  C   -0.077698
     9  N   -0.990474
    10  C    0.784842
    11  O   -0.564250
    12  C   -0.130218
    13  N   -0.885631
    14  N    0.095073
    15  N   -0.332069
    16  C   -0.020971
    17  C   -0.077356
    18  C   -0.233525
    19  C   -0.204581
    20  C   -0.063400
    21  C    0.490864
    22  C    0.264736
    23  C   -0.158146
    24  C   -0.190361
    25  C    0.284427
    26  N   -0.607547
    27  C    0.131938
    28  C   -0.313107
    29  C    0.249229
    30  N   -0.695083
    31  N   -0.250952
    32  C    0.104468
    33  H    0.244748
    34  H    0.222959
    35  H    0.238086
    36  H    0.242693
    37  H    0.199502
    38  H    0.228136
    39  H    0.237326
    40  H    0.251649
    41  H    0.242155
    42  H    0.205262
    43  H    0.204646
    44  H    0.219203
    45  H    0.231148
    46  H    0.213989
    47  H    0.241646
    48  H    0.253811
    49  H    0.260640
    50  H    0.407563
 Sum of Mulliken atomic charges =   0.00000

 Dipole moment (field-independent basis, Debye):
    X=              0.4204    Y=              7.5229    Z=              5.5188  Tot=              9.3396
 Quadrupole moment (field-independent basis, Debye-Ang):
   XX=           -196.3648   YY=           -219.3217   ZZ=           -185.3884
   XY=             25.5615   XZ=             -0.2014   YZ=             -6.7488

 Normal termination of Gaussian 09 at Sat Aug 27 11:51:21 2022.
