 Gaussian 09, Revision C.01,
 Gaussian 09:  EM64L-G09RevC.01 23-Sep-2011

 ---------------
 #p opt hf/6-31G
 ---------------

 (Enter /opt/gaussian/l101.exe)
 ---------
 Mol36.out
 ---------
 Charge =  0 Multiplicity = 1

 SCF Done:  E(RHF) =  -1780.25429028     A.U. after   17 cycles
 SCF Done:  E(RHF) =  -1780.28994904     A.U. after   15 cycles
 SCF Done:  E(RHF) =  -1780.29789806     A.U. after   15 cycles
 SCF Done:  E(RHF) =  -1780.29880138     A.U. after   16 cycles
 SCF Done:  E(RHF) =  -1780.29984499     A.U. after   15 cycles
 SCF Done:  E(RHF) =  -1780.30020453     A.U. after   13 cycles
 SCF Done:  E(RHF) =  -1780.29954085     A.U. after   16 cycles
 SCF Done:  E(RHF) =  -1780.30060736     A.U. after   14 cycles
 SCF Done:  E(RHF) =  -1780.30072884     A.U. after   14 cycles
 SCF Done:  E(RHF) =  -1780.30073349     A.U. after   12 cycles
 SCF Done:  E(RHF) =  -1780.30077406     A.U. after   12 cycles
 SCF Done:  E(RHF) =  -1780.30077542     A.U. after   12 cycles
 SCF Done:  E(RHF) =  -1780.30077709     A.U. after   10 cycles
 SCF Done:  E(RHF) =  -1780.30077752     A.U. after    9 cycles
 SCF Done:  E(RHF) =  -1780.30077785     A.U. after   10 cycles
 SCF Done:  E(RHF) =  -1780.30077800     A.U. after   10 cycles
 SCF Done:  E(RHF) =  -1780.30077809     A.U. after   10 cycles
 SCF Done:  E(RHF) =  -1780.30077813     A.U. after    9 cycles
 SCF Done:  E(RHF) =  -1780.30077814     A.U. after    8 cycles
 SCF Done:  E(RHF) =  -1780.30077814     A.U. after    8 cycles
 Optimization completed.
    -- Stationary point found.

                         Standard orientation:
 ---------------------------------------------------------------------
 Center     Atomic      Atomic             Coordinates (Angstroms)
 Number     Number       Type             X           Y           Z
 ---------------------------------------------------------------------
      1         17           0       -2.780086    5.933013   -0.477835
      2          6           0       -2.007262    4.424683    0.151758
      3          6           0       -2.049591    4.163920    1.507260
      4          6           0       -1.454976    3.002110    1.971693
      5          6           0       -0.830819    2.125645    1.092534
      6          6           0       -0.794376    2.401255   -0.268980
      7          6           0       -1.397368    3.567324   -0.737280
      8          6           0       -0.104682    1.494530   -1.279117
      9          7           0        0.267311    0.167209   -0.786443
     10          6           0       -0.656896   -0.832366   -0.608645
     11          8           0       -0.378019   -1.907395   -0.101552
     12          6           0       -2.079970   -0.548593   -1.075501
     13          7           0       -2.926197   -1.695082   -0.954171
     14          7           0       -3.212134   -2.437455   -2.062112
     15          7           0       -3.942949   -3.420327   -1.735813
     16          6           0       -4.169850   -3.376799   -0.369385
     17          6           0       -4.908365   -4.224313    0.455513
     18          6           0       -4.954436   -3.916878    1.793014
     19          6           0       -4.274534   -2.788734    2.304444
     20          6           0       -3.542268   -1.950268    1.498599
     21          6           0       -3.505262   -2.267685    0.138433
     22          6           0        1.656611   -0.080249   -0.510796
     23          6           0        2.398683    0.836857    0.220335
     24          6           0        3.750453    0.627826    0.445200
     25          6           0        4.397266   -0.499536   -0.052764
     26          6           0        3.637837   -1.414169   -0.783821
     27          6           0        2.289932   -1.210792   -1.013920
     28          6           0        5.830294   -0.725223    0.179612
     29          6           0        6.833547    0.206056    0.266538
     30          7           0        7.981990   -0.470430    0.487442
     31          7           0        7.781433   -1.803615    0.551010
     32          6           0        6.493412   -1.970919    0.365587
     33          1           0       -2.532915    4.845382    2.176252
     34          1           0       -1.475939    2.779549    3.020533
     35          1           0       -0.372056    1.233589    1.470652
     36          1           0       -1.391143    3.803497   -1.783489
     37          1           0       -0.731620    1.402377   -2.157316
     38          1           0        0.806476    1.967782   -1.615108
     39          1           0       -2.500668    0.276908   -0.517642
     40          1           0       -2.079803   -0.279331   -2.121085
     41          1           0       -5.412792   -5.076821    0.047636
     42          1           0       -5.508197   -4.539190    2.467762
     43          1           0       -4.329011   -2.587881    3.356864
     44          1           0       -3.015470   -1.108293    1.900061
     45          1           0        1.929931    1.709883    0.628989
     46          1           0        4.295635    1.337506    1.037063
     47          1           0        4.108724   -2.284986   -1.196252
     48          1           0        1.731316   -1.933761   -1.569763
     49          1           0        6.809200    1.267167    0.169199
     50          1           0        6.066969   -2.947258    0.385631
     51          1           0        8.896521   -0.112391    0.594371
 ---------------------------------------------------------------------

 The electronic state is 1-A.
 Alpha  occ. eigenvalues -- -104.83372 -20.55344 -15.66532 -15.65643 -15.64765
 Alpha  occ. eigenvalues --  -15.62603 -15.61353 -15.60671 -11.39202 -11.33825
 Alpha  occ. eigenvalues --  -11.31471 -11.31320 -11.29786 -11.29633 -11.29165
 Alpha  occ. eigenvalues --  -11.28981 -11.27810 -11.27626 -11.27487 -11.27041
 Alpha  occ. eigenvalues --  -11.26672 -11.26407 -11.26328 -11.25567 -11.25424
 Alpha  occ. eigenvalues --  -11.25388 -11.25310 -11.24957 -11.24739 -11.24650
 Alpha  occ. eigenvalues --  -11.24568 -11.24228 -10.57295  -8.04144  -8.03755
 Alpha  occ. eigenvalues --   -8.03738  -1.47651  -1.42624  -1.40512  -1.29091
 Alpha  occ. eigenvalues --   -1.25119  -1.21872  -1.17946  -1.17701  -1.13808
 Alpha  occ. eigenvalues --   -1.12461  -1.09732  -1.08188  -1.06622  -1.05442
 Alpha  occ. eigenvalues --   -1.03786  -1.03087  -1.02727  -1.00959  -0.97960
 Alpha  occ. eigenvalues --   -0.89224  -0.88834  -0.86886  -0.85893  -0.85219
 Alpha  occ. eigenvalues --   -0.84455  -0.82633  -0.82319  -0.80062  -0.77677
 Alpha  occ. eigenvalues --   -0.75878  -0.74155  -0.73242  -0.72552  -0.72180
 Alpha  occ. eigenvalues --   -0.71237  -0.68285  -0.67335  -0.66112  -0.65699
 Alpha  occ. eigenvalues --   -0.65542  -0.64591  -0.64197  -0.63660  -0.62692
 Alpha  occ. eigenvalues --   -0.62443  -0.62074  -0.61759  -0.61338  -0.60677
 Alpha  occ. eigenvalues --   -0.60424  -0.59906  -0.58524  -0.58101  -0.55831
 Alpha  occ. eigenvalues --   -0.55720  -0.53904  -0.53626  -0.53576  -0.52899
 Alpha  occ. eigenvalues --   -0.52279  -0.51639  -0.50860  -0.50709  -0.49614
 Alpha  occ. eigenvalues --   -0.47961  -0.46835  -0.45485  -0.44945  -0.43287
 Alpha  occ. eigenvalues --   -0.42785  -0.42437  -0.38599  -0.37218  -0.36925
 Alpha  occ. eigenvalues --   -0.36226  -0.35065  -0.33854  -0.32232  -0.30334
 Alpha virt. eigenvalues --    0.09702   0.10003   0.10659   0.11128   0.12913
 Alpha virt. eigenvalues --    0.15581   0.16156   0.16627   0.17494   0.20089
 Alpha virt. eigenvalues --    0.20872   0.22286   0.23157   0.23977   0.24512

 Mulliken atomic charges:
              1
     1  Cl   0.106066
     2  C   -0.315555
     3  C   -0.150956
     4  C   -0.192978
     5  C   -0.211005
     6  C   -0.030931
     7  C   -0.163972
     8  C   -0.080744
     9  N   -0.990462
    10  C    0.786052
    11  O   -0.568939
    12  C   -0.130091
    13  N   -0.884404
    14  N    0.094895
    15  N   -0.334109
    16  C   -0.020474
    17  C   -0.078130
    18  C   -0.233538
    19  C   -0.205030
    20  C   -0.064104
    21  C    0.489368
    22  C    0.323719
    23  C   -0.213932
    24  C   -0.208682
    25  C    0.049253
    26  C   -0.216046
    27  C   -0.143331
    28  C   -0.306369
    29  C    0.224184
    30  N   -0.684941
    31  N   -0.246583
    32  C    0.077113
    33  H    0.243573
    34  H    0.222553
    35  H    0.243337
    36  H    0.241232
    37  H    0.196132
    38  H    0.229354
    39  H    0.237350
    40  H    0.250230
    41  H    0.241127
    42  H    0.204500
    43  H    0.204388
    44  H    0.221099
    45  H    0.220495
    46  H    0.209604
    47  H    0.220728
    48  H    0.242671
    49  H    0.253626
    50  H    0.235193
    51  H    0.407466
 Sum of Mulliken atomic charges =   0.00000

 Dipole moment (field-independent basis, Debye):
    X=              1.9594    Y=              6.2831    Z=              2.8862  Tot=              7.1865
 Quadrupole moment (field-independent basis, Debye-Ang):
   XX=           -191.6980   YY=           -215.8957   ZZ=           -190.1613
   XY=             22.1594   XZ=            -19.5445   YZ=             -5.0678

 Normal termination of Gaussian 09 at Sat Aug 27 09:21:08 2022.
