 Gaussian 09, Revision C.01,
 Gaussian 09:  EM64L-G09RevC.01 23-Sep-2011

 ---------------
 #p opt hf/6-31G
 ---------------

 (Enter /opt/gaussian/l101.exe)
 ---------
 Mol33.out
 ---------
 Charge =  0 Multiplicity = 1

 SCF Done:  E(RHF) =  -1841.17868758     A.U. after   17 cycles
 SCF Done:  E(RHF) =  -1841.21367634     A.U. after   15 cycles
 SCF Done:  E(RHF) =  -1841.22167179     A.U. after   15 cycles
 SCF Done:  E(RHF) =  -1841.22285984     A.U. after   14 cycles
 SCF Done:  E(RHF) =  -1841.22314147     A.U. after   15 cycles
 SCF Done:  E(RHF) =  -1841.22340084     A.U. after   14 cycles
 SCF Done:  E(RHF) =  -1841.22402176     A.U. after   13 cycles
 SCF Done:  E(RHF) =  -1841.22409968     A.U. after   15 cycles
 SCF Done:  E(RHF) =  -1841.22418936     A.U. after   15 cycles
 SCF Done:  E(RHF) =  -1841.22425868     A.U. after   12 cycles
 SCF Done:  E(RHF) =  -1841.22936828     A.U. after   11 cycles
 SCF Done:  E(RHF) =  -1841.22936983     A.U. after   11 cycles
 SCF Done:  E(RHF) =  -1841.22937383     A.U. after   12 cycles
 SCF Done:  E(RHF) =  -1841.22938231     A.U. after   11 cycles
 SCF Done:  E(RHF) =  -1841.22939657     A.U. after   12 cycles
 SCF Done:  E(RHF) =  -1841.22939982     A.U. after   12 cycles
 SCF Done:  E(RHF) =  -1841.22940016     A.U. after   10 cycles
 SCF Done:  E(RHF) =  -1841.22940048     A.U. after   10 cycles
 SCF Done:  E(RHF) =  -1841.22940052     A.U. after    8 cycles
 SCF Done:  E(RHF) =  -1841.22940053     A.U. after    7 cycles
 Optimization completed.
    -- Stationary point found.

                         Standard orientation:
 ---------------------------------------------------------------------
 Center     Atomic      Atomic             Coordinates (Angstroms)
 Number     Number       Type             X           Y           Z
 ---------------------------------------------------------------------
      1          6           0       -4.462278    4.402273   -1.120695
      2          6           0       -3.094059    3.916796   -0.707324
      3          6           0       -2.200578    4.769558   -0.070615
      4          6           0       -0.948352    4.302084    0.275729
      5          6           0       -0.543722    3.012934    0.014922
      6          6           0       -1.432530    2.146812   -0.617200
      7          6           0       -2.695626    2.606649   -0.968804
      8          6           0       -1.027607    0.726433   -0.970225
      9          7           0       -0.371373   -0.024552    0.116984
     10          6           0       -1.058864   -0.567298    1.160185
     11          8           0       -0.508045   -1.164179    2.081424
     12          6           0       -2.578208   -0.462115    1.187814
     13          7           0       -3.199746   -1.433309    0.314877
     14          7           0       -3.972018   -1.027184   -0.733975
     15          7           0       -4.475088   -2.040634   -1.309443
     16          6           0       -4.059461   -3.184370   -0.648675
     17          6           0       -4.347756   -4.528719   -0.888807
     18          6           0       -3.784524   -5.450156   -0.041918
     19          6           0       -2.946066   -5.047735    1.023709
     20          6           0       -2.653162   -3.727535    1.268375
     21          6           0       -3.236622   -2.796342    0.401900
     22          6           0        1.050471   -0.225118    0.041668
     23          6           0        1.587484   -0.933495   -1.023497
     24          6           0        2.957734   -1.108376   -1.127296
     25          6           0        3.820112   -0.590854   -0.163001
     26          6           0        3.265679    0.105151    0.910414
     27          6           0        1.897114    0.287968    1.013547
     28          6           0        5.288057   -0.781475   -0.272031
     29          6           0        5.964485   -0.603437   -1.477068
     30          6           0        7.336209   -0.792532   -1.529942
     31          6           0        8.003645   -1.153468   -0.371307
     32          7           0        7.366247   -1.328075    0.784604
     33          6           0        6.049671   -1.150340    0.835561
     34         17           0        0.203644    5.429147    1.103615
     35          1           0       -5.201533    3.616823   -1.026173
     36          1           0       -4.782948    5.239749   -0.514568
     37          1           0       -4.459333    4.726864   -2.156408
     38          1           0       -2.475288    5.780241    0.154232
     39          1           0        0.437647    2.690207    0.292915
     40          1           0       -3.385326    1.933411   -1.443895
     41          1           0       -1.892083    0.185302   -1.320323
     42          1           0       -0.324762    0.754384   -1.789250
     43          1           0       -2.873405   -0.652629    2.208138
     44          1           0       -2.936370    0.508934    0.893779
     45          1           0       -4.984322   -4.813067   -1.702103
     46          1           0       -3.975966   -6.495303   -0.184175
     47          1           0       -2.522286   -5.801778    1.657961
     48          1           0       -2.001467   -3.426880    2.063047
     49          1           0        0.936479   -1.364039   -1.759722
     50          1           0        3.353342   -1.676943   -1.946457
     51          1           0        3.906740    0.524437    1.660965
     52          1           0        1.487739    0.813407    1.852030
     53          1           0        5.426982   -0.303156   -2.355632
     54          1           0        7.875758   -0.654789   -2.445449
     55          1           0        9.062908   -1.306595   -0.360771
     56          1           0        5.586275   -1.324113    1.785188
 ---------------------------------------------------------------------

 The electronic state is 1-A.
 Alpha  occ. eigenvalues -- -104.82179 -20.55150 -15.68031 -15.67177 -15.62898
 Alpha  occ. eigenvalues --  -15.62085 -15.57669 -11.38965 -11.32452 -11.31156
 Alpha  occ. eigenvalues --  -11.30674 -11.29745 -11.29724 -11.28001 -11.27957
 Alpha  occ. eigenvalues --  -11.27931 -11.27342 -11.27220 -11.26582 -11.26523
 Alpha  occ. eigenvalues --  -11.26399 -11.26299 -11.26104 -11.25992 -11.25890
 Alpha  occ. eigenvalues --  -11.25879 -11.25533 -11.25345 -11.25247 -11.25208
 Alpha  occ. eigenvalues --  -11.25193 -11.25154 -11.25082 -11.23690 -10.56098
 Alpha  occ. eigenvalues --   -8.02948  -8.02563  -8.02546  -1.48938  -1.42211
 Alpha  occ. eigenvalues --   -1.28469  -1.28106  -1.26050  -1.20650  -1.18840
 Alpha  occ. eigenvalues --   -1.18003  -1.12854  -1.11167  -1.08573  -1.07493
 Alpha  occ. eigenvalues --   -1.06937  -1.05686  -1.04085  -1.03098  -1.02804
 Alpha  occ. eigenvalues --   -1.00690  -0.96824  -0.96310  -0.89947  -0.89275
 Alpha  occ. eigenvalues --   -0.87801  -0.86291  -0.85050  -0.84573  -0.82574
 Alpha  occ. eigenvalues --   -0.82327  -0.81969  -0.77972  -0.74568  -0.73686
 Alpha  occ. eigenvalues --   -0.73390  -0.71835  -0.70831  -0.70366  -0.68722
 Alpha  occ. eigenvalues --   -0.68371  -0.68116  -0.66494  -0.66372  -0.65631
 Alpha  occ. eigenvalues --   -0.63673  -0.63482  -0.62911  -0.62789  -0.62207
 Alpha  occ. eigenvalues --   -0.60833  -0.60285  -0.60259  -0.59689  -0.59380
 Alpha  occ. eigenvalues --   -0.58955  -0.58427  -0.57881  -0.56585  -0.55918
 Alpha  occ. eigenvalues --   -0.55210  -0.55172  -0.54425  -0.54004  -0.53565
 Alpha  occ. eigenvalues --   -0.52318  -0.51893  -0.51547  -0.50877  -0.50751
 Alpha  occ. eigenvalues --   -0.50533  -0.49789  -0.46585  -0.46212  -0.45621
 Alpha  occ. eigenvalues --   -0.44036  -0.42930  -0.41588  -0.40373  -0.38847
 Alpha  occ. eigenvalues --   -0.36935  -0.35451  -0.35109  -0.34929  -0.34602
 Alpha  occ. eigenvalues --   -0.33153  -0.31777
 Alpha virt. eigenvalues --    0.08415   0.09388   0.11362   0.11854   0.12018
 Alpha virt. eigenvalues --    0.12719   0.14456   0.14971   0.17013   0.18144
 Alpha virt. eigenvalues --    0.19057   0.23504   0.23878   0.24129   0.24557

 Mulliken atomic charges:
              1
     1  C   -0.472897
     2  C    0.000538
     3  C   -0.163766
     4  C   -0.313334
     5  C   -0.152094
     6  C   -0.015635
     7  C   -0.241291
     8  C   -0.123641
     9  N   -0.952141
    10  C    0.789412
    11  O   -0.595763
    12  C   -0.128981
    13  N   -0.876971
    14  N    0.062234
    15  N   -0.330714
    16  C   -0.012369
    17  C   -0.082106
    18  C   -0.229866
    19  C   -0.208765
    20  C   -0.080212
    21  C    0.436297
    22  C    0.296347
    23  C   -0.182271
    24  C   -0.201596
    25  C   -0.014323
    26  C   -0.208894
    27  C   -0.146838
    28  C   -0.091832
    29  C   -0.140172
    30  C   -0.245261
    31  C    0.059098
    32  N   -0.532637
    33  C    0.061308
    34  Cl   0.092942
    35  H    0.180852
    36  H    0.173215
    37  H    0.185727
    38  H    0.237318
    39  H    0.252411
    40  H    0.247715
    41  H    0.239695
    42  H    0.217755
    43  H    0.243755
    44  H    0.252624
    45  H    0.242042
    46  H    0.208195
    47  H    0.212773
    48  H    0.278745
    49  H    0.221093
    50  H    0.218393
    51  H    0.225577
    52  H    0.235281
    53  H    0.222754
    54  H    0.214964
    55  H    0.211754
    56  H    0.223556
 Sum of Mulliken atomic charges =   0.00000

 Dipole moment (field-independent basis, Debye):
    X=             -1.9591    Y=             -0.5412    Z=             -3.4033  Tot=              3.9640
 Quadrupole moment (field-independent basis, Debye-Ang):
   XX=           -213.9768   YY=           -200.8909   ZZ=           -207.2637
   XY=             -1.1897   XZ=            -23.9927   YZ=             -0.0593

 Normal termination of Gaussian 09 at Sat Aug 27 07:33:17 2022.
