 Gaussian 09, Revision C.01,
 Gaussian 09:  EM64L-G09RevC.01 23-Sep-2011

 ---------------
 #p opt hf/6-31G
 ---------------

 (Enter /opt/gaussian/l101.exe)
 ---------
 Mol32.out
 ---------
 Charge =  0 Multiplicity = 1

 SCF Done:  E(RHF) =  -2261.02597809     A.U. after   16 cycles
 SCF Done:  E(RHF) =  -2261.06240619     A.U. after   15 cycles
 SCF Done:  E(RHF) =  -2261.07166413     A.U. after   16 cycles
 SCF Done:  E(RHF) =  -2261.07294613     A.U. after   16 cycles
 SCF Done:  E(RHF) =  -2261.07341697     A.U. after   15 cycles
 SCF Done:  E(RHF) =  -2261.07443799     A.U. after   14 cycles
 SCF Done:  E(RHF) =  -2261.07475974     A.U. after   13 cycles
 SCF Done:  E(RHF) =  -2261.07483041     A.U. after   15 cycles
 SCF Done:  E(RHF) =  -2261.07489433     A.U. after   14 cycles
 SCF Done:  E(RHF) =  -2261.07493688     A.U. after   12 cycles
 SCF Done:  E(RHF) =  -2261.08058003     A.U. after   13 cycles
 SCF Done:  E(RHF) =  -2261.08060329     A.U. after   13 cycles
 SCF Done:  E(RHF) =  -2261.08062076     A.U. after   12 cycles
 SCF Done:  E(RHF) =  -2261.08062868     A.U. after   12 cycles
 SCF Done:  E(RHF) =  -2261.08063012     A.U. after   10 cycles
 SCF Done:  E(RHF) =  -2261.08063055     A.U. after   10 cycles
 SCF Done:  E(RHF) =  -2261.08063072     A.U. after   10 cycles
 SCF Done:  E(RHF) =  -2261.08063085     A.U. after   10 cycles
 SCF Done:  E(RHF) =  -2261.08063090     A.U. after    8 cycles
 SCF Done:  E(RHF) =  -2261.08063091     A.U. after    8 cycles
 Optimization completed.
    -- Stationary point found.

                         Standard orientation:
 ---------------------------------------------------------------------
 Center     Atomic      Atomic             Coordinates (Angstroms)
 Number     Number       Type             X           Y           Z
 ---------------------------------------------------------------------
      1         17           0       -4.975139    3.888215   -0.906214
      2          6           0       -3.266345    3.462930   -0.515966
      3          6           0       -2.465356    4.413919    0.078393
      4          6           0       -1.162086    4.058646    0.368850
      5          6           0       -0.660293    2.808306    0.082519
      6          6           0       -1.486653    1.860300   -0.515779
      7          6           0       -2.802806    2.196343   -0.815098
      8          6           0       -0.962824    0.485251   -0.892889
      9          7           0       -0.213206   -0.205835    0.170601
     10          6           0       -0.821777   -0.843634    1.211553
     11          8           0       -0.193147   -1.392082    2.111540
     12          6           0       -2.342829   -0.908204    1.261849
     13          7           0       -2.869316   -1.907676    0.360300
     14          7           0       -3.676726   -1.546790   -0.679747
     15          7           0       -4.080015   -2.586395   -1.285134
     16          6           0       -3.557886   -3.703994   -0.655656
     17          6           0       -3.716890   -5.062111   -0.934971
     18          6           0       -3.068154   -5.949651   -0.113310
     19          6           0       -2.271655   -5.500055    0.965463
     20          6           0       -2.106065   -4.165433    1.248737
     21          6           0       -2.775997   -3.269875    0.408049
     22          6           0        1.221314   -0.250086    0.071210
     23          6           0        1.814585   -0.878948   -1.013822
     24          6           0        3.193899   -0.902684   -1.139553
     25          6           0        4.010503   -0.310549   -0.178196
     26          6           0        3.401163    0.303520    0.915277
     27          6           0        2.022564    0.335294    1.040675
     28          6           0        5.488546   -0.339543   -0.310798
     29          6           0        6.122872   -0.070621   -1.521875
     30          6           0        7.505967   -0.109206   -1.596746
     31          6           0        8.226310   -0.413782   -0.453642
     32          7           0        7.629448   -0.674381    0.707696
     33          6           0        6.302398   -0.641103    0.779806
     34         17           0       -0.084725    5.281513    1.145153
     35          1           0       -2.837848    5.389306    0.307337
     36          1           0        0.357510    2.576016    0.315897
     37          1           0       -3.458434    1.478134   -1.266142
     38          1           0       -1.782909   -0.129037   -1.226576
     39          1           0       -0.288831    0.586183   -1.730131
     40          1           0       -2.598221   -1.167321    2.277690
     41          1           0       -2.810872    0.028269    1.012370
     42          1           0       -4.323796   -5.382269   -1.757531
     43          1           0       -3.159307   -7.003709   -0.285776
     44          1           0       -1.777842   -6.228247    1.578873
     45          1           0       -1.485961   -3.827554    2.053797
     46          1           0        1.202755   -1.366292   -1.748286
     47          1           0        3.635678   -1.411927   -1.973911
     48          1           0        4.004990    0.776484    1.664742
     49          1           0        1.572309    0.797601    1.895393
     50          1           0        5.542721    0.183194   -2.387891
     51          1           0        8.013257    0.100289   -2.517034
     52          1           0        9.295915   -0.451417   -0.460182
     53          1           0        5.875419   -0.879083    1.732594
 ---------------------------------------------------------------------

 The electronic state is 1-A.
 Alpha  occ. eigenvalues -- -104.83647-104.83478 -20.55795 -15.68392 -15.67541
 Alpha  occ. eigenvalues --  -15.63279 -15.62782 -15.57961 -11.39571 -11.34327
 Alpha  occ. eigenvalues --  -11.34234 -11.31738 -11.31035 -11.30729 -11.30297
 Alpha  occ. eigenvalues --  -11.29243 -11.28589 -11.28322 -11.28251 -11.28248
 Alpha  occ. eigenvalues --  -11.27945 -11.27897 -11.27049 -11.26854 -11.26731
 Alpha  occ. eigenvalues --  -11.26589 -11.26428 -11.26227 -11.26049 -11.25819
 Alpha  occ. eigenvalues --  -11.25740 -11.25587 -11.25481 -11.25422 -10.57567
 Alpha  occ. eigenvalues --  -10.57397  -8.04416  -8.04247  -8.04023  -8.04005
 Alpha  occ. eigenvalues --   -8.03850  -8.03835  -1.49304  -1.42871  -1.29185
 Alpha  occ. eigenvalues --   -1.28415  -1.26484  -1.23460  -1.19172  -1.18540
 Alpha  occ. eigenvalues --   -1.16142  -1.13074  -1.11398  -1.07897  -1.07402
 Alpha  occ. eigenvalues --   -1.06491  -1.05967  -1.04560  -1.03461  -1.02436
 Alpha  occ. eigenvalues --   -1.01408  -0.98310  -0.90299  -0.89715  -0.88203
 Alpha  occ. eigenvalues --   -0.86644  -0.86016  -0.85137  -0.84426  -0.84063
 Alpha  occ. eigenvalues --   -0.82709  -0.78611  -0.75102  -0.74174  -0.73818
 Alpha  occ. eigenvalues --   -0.73609  -0.71591  -0.71379  -0.69938  -0.68891
 Alpha  occ. eigenvalues --   -0.68660  -0.66998  -0.66735  -0.66382  -0.64185
 Alpha  occ. eigenvalues --   -0.63929  -0.63423  -0.63185  -0.63004  -0.61611
 Alpha  occ. eigenvalues --   -0.61213  -0.60957  -0.60806  -0.60575  -0.59801
 Alpha  occ. eigenvalues --   -0.58215  -0.57433  -0.57195  -0.55705  -0.55529
 Alpha  occ. eigenvalues --   -0.54859  -0.54689  -0.53716  -0.52520  -0.52317
 Alpha  occ. eigenvalues --   -0.51949  -0.51467  -0.51275  -0.50998  -0.50748
 Alpha  occ. eigenvalues --   -0.47335  -0.47055  -0.46544  -0.46427  -0.44394
 Alpha  occ. eigenvalues --   -0.43407  -0.42154  -0.40713  -0.39279  -0.37432
 Alpha  occ. eigenvalues --   -0.36898  -0.36410  -0.35843  -0.35275  -0.33475
 Alpha  occ. eigenvalues --   -0.32244
 Alpha virt. eigenvalues --    0.08064   0.08857   0.09613   0.10304   0.11655
 Alpha virt. eigenvalues --    0.12020   0.13889   0.14409   0.14810   0.16683
 Alpha virt. eigenvalues --    0.18693   0.20399   0.23104   0.23565   0.24235

 Mulliken atomic charges:
              1
     1  Cl   0.125836
     2  C   -0.322188
     3  C   -0.099926
     4  C   -0.324373
     5  C   -0.133804
     6  C   -0.022762
     7  C   -0.169788
     8  C   -0.126327
     9  N   -0.952562
    10  C    0.789272
    11  O   -0.590421
    12  C   -0.130336
    13  N   -0.877024
    14  N    0.059225
    15  N   -0.326119
    16  C   -0.012924
    17  C   -0.080692
    18  C   -0.230196
    19  C   -0.207498
    20  C   -0.080889
    21  C    0.438709
    22  C    0.294545
    23  C   -0.182350
    24  C   -0.201177
    25  C   -0.014105
    26  C   -0.208291
    27  C   -0.149602
    28  C   -0.092175
    29  C   -0.139933
    30  C   -0.245235
    31  C    0.059608
    32  N   -0.532121
    33  C    0.061699
    34  Cl   0.120156
    35  H    0.270833
    36  H    0.262149
    37  H    0.282153
    38  H    0.247587
    39  H    0.222321
    40  H    0.246895
    41  H    0.249030
    42  H    0.243902
    43  H    0.209509
    44  H    0.213763
    45  H    0.275998
    46  H    0.222372
    47  H    0.220224
    48  H    0.226776
    49  H    0.234782
    50  H    0.222890
    51  H    0.215972
    52  H    0.212848
    53  H    0.223764
 Sum of Mulliken atomic charges =   0.00000

 Dipole moment (field-independent basis, Debye):
    X=              0.9491    Y=             -1.7691    Z=             -2.5132  Tot=              3.2166
 Quadrupole moment (field-independent basis, Debye-Ang):
   XX=           -237.7580   YY=           -207.7166   ZZ=           -212.5595
   XY=             11.8808   XZ=            -28.7307   YZ=              2.5025

 Normal termination of Gaussian 09 at Sat Aug 27 06:07:53 2022.
