 Gaussian 09, Revision C.01,
 Gaussian 09:  EM64L-G09RevC.01 23-Sep-2011

 ---------------
 #p opt hf/6-31G
 ---------------

 (Enter /opt/gaussian/l101.exe)
 ---------
 Mol38.out
 ---------
 Charge =  0 Multiplicity = 1

 SCF Done:  E(RHF) =  -1894.07635255     A.U. after   17 cycles
 SCF Done:  E(RHF) =  -1894.11510109     A.U. after   15 cycles
 SCF Done:  E(RHF) =  -1894.12238561     A.U. after   16 cycles
 SCF Done:  E(RHF) =  -1894.12525655     A.U. after   17 cycles
 SCF Done:  E(RHF) =  -1894.12607599     A.U. after   16 cycles
 SCF Done:  E(RHF) =  -1894.12654760     A.U. after   16 cycles
 SCF Done:  E(RHF) =  -1894.12771712     A.U. after   14 cycles
 SCF Done:  E(RHF) =  -1894.12802059     A.U. after   13 cycles
 SCF Done:  E(RHF) =  -1894.12817167     A.U. after   15 cycles
 SCF Done:  E(RHF) =  -1894.12821004     A.U. after   12 cycles
 SCF Done:  E(RHF) =  -1894.12825216     A.U. after   12 cycles
 SCF Done:  E(RHF) =  -1894.12825290     A.U. after   12 cycles
 SCF Done:  E(RHF) =  -1894.12825318     A.U. after    8 cycles
 SCF Done:  E(RHF) =  -1894.12825330     A.U. after    8 cycles
 SCF Done:  E(RHF) =  -1894.12825343     A.U. after   10 cycles
 SCF Done:  E(RHF) =  -1894.12825359     A.U. after   10 cycles
 SCF Done:  E(RHF) =  -1894.12825370     A.U. after   10 cycles
 SCF Done:  E(RHF) =  -1894.12825379     A.U. after    8 cycles
 SCF Done:  E(RHF) =  -1894.12825385     A.U. after    9 cycles
 SCF Done:  E(RHF) =  -1894.12825387     A.U. after    8 cycles
 Optimization completed.
    -- Stationary point found.

                         Standard orientation:
 ---------------------------------------------------------------------
 Center     Atomic      Atomic             Coordinates (Angstroms)
 Number     Number       Type             X           Y           Z
 ---------------------------------------------------------------------
      1          6           0        1.637600   -3.119472    1.712932
      2          8           0        1.671043   -1.686454    1.909237
      3          6           0        2.282325   -0.881800    0.978793
      4          6           0        3.607211   -1.052588    0.620716
      5          6           0        4.219055   -0.189954   -0.288531
      6          6           0        3.465673    0.851233   -0.826144
      7          6           0        2.139736    1.022764   -0.462026
      8          6           0        1.536451    0.161578    0.437147
      9          7           0        0.176274    0.336460    0.849352
     10          6           0       -0.099629    1.376298    1.840719
     11          6           0       -0.943296    2.542766    1.349199
     12          6           0       -1.450315    3.443810    2.283770
     13          6           0       -2.195748    4.538264    1.880295
     14          6           0       -2.457313    4.752729    0.532765
     15          6           0       -1.955604    3.851663   -0.379590
     16          6           0       -1.205254    2.755428    0.001796
     17         17           0       -2.288626    4.104344   -2.140962
     18          6           0       -0.720825   -0.645097    0.522272
     19          8           0       -0.460233   -1.524632   -0.284640
     20          6           0       -2.076929   -0.601623    1.211275
     21          7           0       -2.930644   -1.668884    0.789278
     22          7           0       -3.050201   -2.783270    1.564129
     23          7           0       -3.803762   -3.623152    0.985299
     24          6           0       -4.214926   -3.094734   -0.228052
     25          6           0       -5.044377   -3.624919   -1.215559
     26          6           0       -5.274575   -2.850456   -2.325958
     27          6           0       -4.688422   -1.571361   -2.456138
     28          6           0       -3.868298   -1.042218   -1.488486
     29          6           0       -3.643020   -1.835729   -0.360456
     30          6           0        5.628217   -0.379161   -0.657795
     31          6           0        6.342383   -1.605682   -0.762551
     32          7           0        7.588697   -1.403812   -1.118589
     33          7           0        7.711677   -0.065638   -1.246919
     34          6           0        6.555671    0.578942   -0.979577
     35          1           0        0.958642   -3.495377    2.458278
     36          1           0        1.267946   -3.346587    0.725502
     37          1           0        2.618593   -3.546382    1.864028
     38          1           0        4.173531   -1.838522    1.078635
     39          1           0        3.902376    1.509610   -1.550922
     40          1           0        1.567694    1.819327   -0.894288
     41          1           0       -0.561780    0.946551    2.721557
     42          1           0        0.859549    1.753710    2.164546
     43          1           0       -1.261246    3.288697    3.329778
     44          1           0       -2.579505    5.224533    2.609443
     45          1           0       -3.035954    5.592455    0.207859
     46          1           0       -0.834652    2.078191   -0.738878
     47          1           0       -1.939814   -0.717824    2.276592
     48          1           0       -2.564900    0.347115    1.037046
     49          1           0       -5.476201   -4.598335   -1.098674
     50          1           0       -5.904338   -3.215234   -3.113135
     51          1           0       -4.888091   -1.000171   -3.341929
     52          1           0       -3.419112   -0.076512   -1.605659
     53          1           0        5.978290   -2.595497   -0.610726
     54          1           0        6.475799    1.641088   -1.015519
     55          1           0        8.584298    0.317979   -1.506713
 ---------------------------------------------------------------------

 The electronic state is 1-A.
 Alpha  occ. eigenvalues -- -104.83063 -20.57834 -20.54508 -15.66197 -15.65275
 Alpha  occ. eigenvalues --  -15.64931 -15.61426 -15.61004 -15.60824 -11.38387
 Alpha  occ. eigenvalues --  -11.33416 -11.31353 -11.30850 -11.30468 -11.29359
 Alpha  occ. eigenvalues --  -11.29274 -11.28773 -11.28452 -11.27782 -11.27277
 Alpha  occ. eigenvalues --  -11.27174 -11.27117 -11.26972 -11.26733 -11.26615
 Alpha  occ. eigenvalues --  -11.26358 -11.25509 -11.25200 -11.25091 -11.25055
 Alpha  occ. eigenvalues --  -11.24801 -11.24427 -11.24424 -11.23930 -10.56983
 Alpha  occ. eigenvalues --   -8.03832  -8.03445  -8.03429  -1.47307  -1.41999
 Alpha  occ. eigenvalues --   -1.40688  -1.39825  -1.28144  -1.24714  -1.21419
 Alpha  occ. eigenvalues --   -1.17638  -1.17499  -1.13514  -1.12651  -1.09683
 Alpha  occ. eigenvalues --   -1.07533  -1.06260  -1.05106  -1.03620  -1.02950
 Alpha  occ. eigenvalues --   -1.02627  -1.00884  -0.97313  -0.94618  -0.88921
 Alpha  occ. eigenvalues --   -0.88543  -0.86467  -0.85259  -0.84863  -0.83621
 Alpha  occ. eigenvalues --   -0.82868  -0.82063  -0.79644  -0.77428  -0.76014
 Alpha  occ. eigenvalues --   -0.73821  -0.72743  -0.72139  -0.71837  -0.71056
 Alpha  occ. eigenvalues --   -0.69057  -0.68166  -0.66847  -0.65366  -0.65161
 Alpha  occ. eigenvalues --   -0.64607  -0.64324  -0.64129  -0.63244  -0.62865
 Alpha  occ. eigenvalues --   -0.62501  -0.62350  -0.61881  -0.61462  -0.60839
 Alpha  occ. eigenvalues --   -0.60384  -0.60111  -0.59784  -0.58285  -0.58225
 Alpha  occ. eigenvalues --   -0.55463  -0.55261  -0.54513  -0.53794  -0.53463
 Alpha  occ. eigenvalues --   -0.53115  -0.52578  -0.51523  -0.51243  -0.50393
 Alpha  occ. eigenvalues --   -0.49400  -0.49251  -0.47617  -0.46509  -0.45541
 Alpha  occ. eigenvalues --   -0.45417  -0.44515  -0.42740  -0.42123  -0.41032
 Alpha  occ. eigenvalues --   -0.38940  -0.37285  -0.36783  -0.35765  -0.33914
 Alpha  occ. eigenvalues --   -0.33509  -0.31921  -0.30789
 Alpha virt. eigenvalues --    0.10023   0.10553   0.10956   0.11292   0.13383
 Alpha virt. eigenvalues --    0.15941   0.16435   0.16866   0.17283   0.20542
 Alpha virt. eigenvalues --    0.21251   0.22181   0.23090   0.23777   0.24646

 Mulliken atomic charges:
              1
     1  C   -0.137712
     2  O   -0.787033
     3  C    0.427834
     4  C   -0.213757
     5  C    0.069119
     6  C   -0.219381
     7  C   -0.171866
     8  C    0.256031
     9  N   -0.955480
    10  C   -0.058756
    11  C   -0.030819
    12  C   -0.212699
    13  C   -0.188428
    14  C   -0.153363
    15  C   -0.316144
    16  C   -0.158014
    17  Cl   0.098189
    18  C    0.818713
    19  O   -0.584956
    20  C   -0.136212
    21  N   -0.878940
    22  N    0.094835
    23  N   -0.337762
    24  C   -0.019255
    25  C   -0.079694
    26  C   -0.233375
    27  C   -0.205821
    28  C   -0.068932
    29  C    0.483930
    30  C   -0.315831
    31  C    0.080059
    32  N   -0.246495
    33  N   -0.685312
    34  C    0.228930
    35  H    0.193493
    36  H    0.204125
    37  H    0.148709
    38  H    0.229447
    39  H    0.211076
    40  H    0.223840
    41  H    0.195417
    42  H    0.229231
    43  H    0.216782
    44  H    0.220762
    45  H    0.241990
    46  H    0.258841
    47  H    0.255284
    48  H    0.233332
    49  H    0.239362
    50  H    0.203565
    51  H    0.206971
    52  H    0.228392
    53  H    0.232823
    54  H    0.256548
    55  H    0.408408
 Sum of Mulliken atomic charges =   0.00000

 Dipole moment (field-independent basis, Debye):
    X=              1.5950    Y=              7.1618    Z=              1.3421  Tot=              7.4590
 Quadrupole moment (field-independent basis, Debye-Ang):
   XX=           -195.9057   YY=           -205.9486   ZZ=           -203.2197
   XY=              6.2930   XZ=              3.2923   YZ=             13.5073

 Normal termination of Gaussian 09 at Sat Aug 27 11:18:30 2022.
