 Gaussian 09, Revision C.01,
 Gaussian 09:  EM64L-G09RevC.01 23-Sep-2011

 ---------------
 #p opt hf/6-31G
 ---------------

 (Enter /opt/gaussian/l101.exe)
 ---------
 Mol35.out
 ---------
 Charge =  0 Multiplicity = 1

 SCF Done:  E(RHF) =  -1876.99468491     A.U. after   18 cycles
 SCF Done:  E(RHF) =  -1877.03039912     A.U. after   15 cycles
 SCF Done:  E(RHF) =  -1877.03263667     A.U. after   17 cycles
 SCF Done:  E(RHF) =  -1877.03802939     A.U. after   17 cycles
 SCF Done:  E(RHF) =  -1877.03579850     A.U. after   16 cycles
 SCF Done:  E(RHF) =  -1877.04049807     A.U. after   16 cycles
 SCF Done:  E(RHF) =  -1877.04114605     A.U. after   14 cycles
 SCF Done:  E(RHF) =  -1877.04128503     A.U. after   14 cycles
 SCF Done:  E(RHF) =  -1877.04159709     A.U. after   13 cycles
 SCF Done:  E(RHF) =  -1877.04171068     A.U. after   13 cycles
 SCF Done:  E(RHF) =  -1877.04174373     A.U. after   10 cycles
 SCF Done:  E(RHF) =  -1877.04174488     A.U. after   12 cycles
 SCF Done:  E(RHF) =  -1877.04174605     A.U. after   10 cycles
 SCF Done:  E(RHF) =  -1877.04174634     A.U. after    9 cycles
 SCF Done:  E(RHF) =  -1877.04174645     A.U. after    9 cycles
 SCF Done:  E(RHF) =  -1877.04174654     A.U. after    8 cycles
 SCF Done:  E(RHF) =  -1877.04174657     A.U. after    9 cycles
 SCF Done:  E(RHF) =  -1877.04174659     A.U. after    9 cycles
 SCF Done:  E(RHF) =  -1877.04174660     A.U. after    8 cycles
 SCF Done:  E(RHF) =  -1877.04174660     A.U. after    8 cycles
 Optimization completed.
    -- Stationary point found.

                         Standard orientation:
 ---------------------------------------------------------------------
 Center     Atomic      Atomic             Coordinates (Angstroms)
 Number     Number       Type             X           Y           Z
 ---------------------------------------------------------------------
      1         17           0       -3.530437    5.800192   -0.596653
      2          6           0       -2.696852    4.340741    0.070237
      3          6           0       -2.768927    4.087700    1.425951
      4          6           0       -2.126943    2.963630    1.919140
      5          6           0       -1.427689    2.116666    1.067989
      6          6           0       -1.362155    2.384044   -0.294033
      7          6           0       -2.012442    3.512173   -0.791349
      8          6           0       -0.592818    1.508941   -1.274245
      9          7           0       -0.153923    0.213264   -0.754117
     10          6           0       -1.015787   -0.840684   -0.582620
     11          8           0       -0.682459   -1.885484   -0.046376
     12          6           0       -2.438678   -0.657408   -1.097624
     13          7           0       -3.225807   -1.841735   -0.944219
     14          7           0       -3.444980   -2.647571   -2.022133
     15          7           0       -4.129390   -3.653556   -1.666506
     16          6           0       -4.390394   -3.561173   -0.308625
     17          6           0       -5.101324   -4.409733    0.538968
     18          6           0       -5.195905   -4.044961    1.859494
     19          6           0       -4.590848   -2.858829    2.332095
     20          6           0       -3.886015   -2.018726    1.503734
     21          6           0       -3.798953   -2.395333    0.161063
     22          6           0        1.243737    0.049537   -0.457495
     23          6           0        1.906321    0.980610    0.327125
     24          6           0        3.268028    0.854347    0.559085
     25          6           0        3.994293   -0.207631    0.029357
     26          6           0        3.316242   -1.132347   -0.767595
     27          6           0        1.961576   -1.005456   -1.008912
     28          6           0        5.438121   -0.353778    0.338035
     29          6           0        5.927565   -0.134007    1.583846
     30          6           0        7.319102   -0.241245    1.898965
     31          6           0        8.166314   -0.581691    0.913839
     32          7           0        7.687514   -0.817009   -0.343760
     33          6           0        6.363869   -0.739129   -0.722918
     34          8           0        6.056337   -0.991476   -1.892619
     35          1           0       -3.310270    4.746304    2.073051
     36          1           0       -2.169726    2.747592    2.968737
     37          1           0       -0.933140    1.253786    1.467928
     38          1           0       -1.984566    3.741298   -1.838746
     39          1           0       -1.190110    1.368678   -2.166960
     40          1           0        0.296786    2.032781   -1.592502
     41          1           0       -2.920080    0.168243   -0.591823
     42          1           0       -2.420451   -0.436870   -2.154744
     43          1           0       -5.549066   -5.306366    0.160582
     44          1           0       -5.731261   -4.665622    2.550471
     45          1           0       -4.681973   -2.613275    3.372468
     46          1           0       -3.416882   -1.130495    1.876102
     47          1           0        1.375677    1.809136    0.752323
     48          1           0        3.765898    1.602834    1.144869
     49          1           0        3.854864   -1.938172   -1.218470
     50          1           0        1.460324   -1.733935   -1.611160
     51          1           0        5.246426    0.118075    2.373250
     52          1           0        7.670420   -0.060632    2.892500
     53          1           0        9.222162   -0.689420    1.047172
     54          1           0        8.310838   -1.072798   -1.075895
 ---------------------------------------------------------------------

 The electronic state is 1-A.
 Alpha  occ. eigenvalues -- -104.83109 -20.54910 -20.52294 -15.66275 -15.65379
 Alpha  occ. eigenvalues --  -15.63546 -15.62043 -15.61076 -11.38760 -11.37596
 Alpha  occ. eigenvalues --  -11.33549 -11.32258 -11.31117 -11.30874 -11.29401
 Alpha  occ. eigenvalues --  -11.29297 -11.28657 -11.27946 -11.27497 -11.27366
 Alpha  occ. eigenvalues --  -11.27221 -11.26747 -11.26607 -11.26450 -11.25640
 Alpha  occ. eigenvalues --  -11.25505 -11.25390 -11.25249 -11.25200 -11.24689
 Alpha  occ. eigenvalues --  -11.24559 -11.24053 -11.23835 -11.23672 -10.57032
 Alpha  occ. eigenvalues --   -8.03881  -8.03492  -8.03475  -1.47392  -1.42174
 Alpha  occ. eigenvalues --   -1.40039  -1.29252  -1.28612  -1.24840  -1.21576
 Alpha  occ. eigenvalues --   -1.17731  -1.17476  -1.13630  -1.12774  -1.08233
 Alpha  occ. eigenvalues --   -1.07051  -1.06201  -1.05054  -1.03146  -1.02707
 Alpha  occ. eigenvalues --   -1.02408  -1.00558  -0.97572  -0.90818  -0.88901
 Alpha  occ. eigenvalues --   -0.88709  -0.86605  -0.86007  -0.85038  -0.84372
 Alpha  occ. eigenvalues --   -0.83160  -0.81437  -0.77549  -0.76395  -0.73847
 Alpha  occ. eigenvalues --   -0.73043  -0.72288  -0.72044  -0.71623  -0.70824
 Alpha  occ. eigenvalues --   -0.69044  -0.68102  -0.67160  -0.66173  -0.65518
 Alpha  occ. eigenvalues --   -0.65294  -0.64025  -0.63750  -0.63204  -0.62407
 Alpha  occ. eigenvalues --   -0.62135  -0.61689  -0.61651  -0.61088  -0.60776
 Alpha  occ. eigenvalues --   -0.60082  -0.59361  -0.58919  -0.57071  -0.55886
 Alpha  occ. eigenvalues --   -0.55497  -0.55391  -0.53671  -0.53306  -0.52870
 Alpha  occ. eigenvalues --   -0.52120  -0.51581  -0.51287  -0.50511  -0.50102
 Alpha  occ. eigenvalues --   -0.49408  -0.48622  -0.47674  -0.46571  -0.44656
 Alpha  occ. eigenvalues --   -0.44066  -0.42957  -0.42285  -0.42172  -0.40996
 Alpha  occ. eigenvalues --   -0.36893  -0.36070  -0.34489  -0.34101  -0.33639
 Alpha  occ. eigenvalues --   -0.32025  -0.29655
 Alpha virt. eigenvalues --    0.07759   0.09927   0.10343   0.10939   0.13592
 Alpha virt. eigenvalues --    0.13932   0.15795   0.16184   0.16858   0.18102
 Alpha virt. eigenvalues --    0.20386   0.20783   0.21196   0.23336   0.24615

 Mulliken atomic charges:
              1
     1  Cl   0.104814
     2  C   -0.314986
     3  C   -0.151257
     4  C   -0.193178
     5  C   -0.211347
     6  C   -0.030094
     7  C   -0.163975
     8  C   -0.078680
     9  N   -0.989056
    10  C    0.785572
    11  O   -0.567445
    12  C   -0.130352
    13  N   -0.883801
    14  N    0.096941
    15  N   -0.334751
    16  C   -0.019909
    17  C   -0.078317
    18  C   -0.233652
    19  C   -0.205264
    20  C   -0.064575
    21  C    0.488677
    22  C    0.326638
    23  C   -0.216592
    24  C   -0.205497
    25  C    0.002976
    26  C   -0.165447
    27  C   -0.156219
    28  C   -0.154675
    29  C   -0.121651
    30  C   -0.308726
    31  C    0.238912
    32  N   -0.979367
    33  C    0.792743
    34  O   -0.624310
    35  H    0.242541
    36  H    0.220650
    37  H    0.242381
    38  H    0.241876
    39  H    0.195542
    40  H    0.232890
    41  H    0.235623
    42  H    0.251546
    43  H    0.240731
    44  H    0.203593
    45  H    0.203151
    46  H    0.220597
    47  H    0.217870
    48  H    0.208284
    49  H    0.250728
    50  H    0.237239
    51  H    0.229267
    52  H    0.222096
    53  H    0.242643
    54  H    0.406600
 Sum of Mulliken atomic charges =   0.00000

 Dipole moment (field-independent basis, Debye):
    X=              4.9734    Y=              4.5515    Z=              6.8906  Tot=              9.6401
 Quadrupole moment (field-independent basis, Debye-Ang):
   XX=           -157.2244   YY=           -229.9003   ZZ=           -202.3545
   XY=             -1.9041   XZ=              4.5899   YZ=             -9.1321

 Normal termination of Gaussian 09 at Sat Aug 27 08:48:36 2022.
