 Gaussian 09, Revision C.01,
 Gaussian 09:  EM64L-G09RevC.01 23-Sep-2011

 ---------------
 #p opt hf/6-31G
 ---------------

 (Enter /opt/gaussian/l101.exe)
 ---------
 Mol40.out
 ---------
 Charge =  0 Multiplicity = 1

 SCF Done:  E(RHF) =  -1796.22045098     A.U. after   17 cycles
 SCF Done:  E(RHF) =  -1796.25868101     A.U. after   15 cycles
 SCF Done:  E(RHF) =  -1796.26662713     A.U. after   15 cycles
 SCF Done:  E(RHF) =  -1796.26671388     A.U. after   17 cycles
 SCF Done:  E(RHF) =  -1796.26920334     A.U. after   15 cycles
 SCF Done:  E(RHF) =  -1796.27056503     A.U. after   15 cycles
 SCF Done:  E(RHF) =  -1796.27160723     A.U. after   16 cycles
 SCF Done:  E(RHF) =  -1796.27348794     A.U. after   17 cycles
 SCF Done:  E(RHF) =  -1796.23418879     A.U. after   18 cycles
 SCF Done:  E(RHF) =  -1796.27529372     A.U. after   18 cycles
 SCF Done:  E(RHF) =  -1796.28372911     A.U. after   13 cycles
 SCF Done:  E(RHF) =  -1796.28378467     A.U. after   12 cycles
 SCF Done:  E(RHF) =  -1796.28380943     A.U. after   12 cycles
 SCF Done:  E(RHF) =  -1796.28381923     A.U. after   12 cycles
 SCF Done:  E(RHF) =  -1796.28382850     A.U. after   12 cycles
 SCF Done:  E(RHF) =  -1796.28383485     A.U. after   12 cycles
 SCF Done:  E(RHF) =  -1796.28383651     A.U. after   12 cycles
 SCF Done:  E(RHF) =  -1796.28383709     A.U. after   11 cycles
 SCF Done:  E(RHF) =  -1796.28383733     A.U. after   10 cycles
 SCF Done:  E(RHF) =  -1796.28383743     A.U. after    9 cycles
 Optimization completed.
    -- Stationary point found.

                         Standard orientation:
 ---------------------------------------------------------------------
 Center     Atomic      Atomic             Coordinates (Angstroms)
 Number     Number       Type             X           Y           Z
 ---------------------------------------------------------------------
      1         17           0       -3.307952    5.336904   -0.377289
      2          6           0       -2.105102    4.109235    0.189891
      3          6           0       -1.791266    4.044417    1.530372
      4          6           0       -0.868457    3.094024    1.945544
      5          6           0       -0.277698    2.234096    1.032115
      6          6           0       -0.606566    2.308895   -0.317835
      7          6           0       -1.534114    3.259128   -0.735196
      8          6           0        0.046633    1.416511   -1.357027
      9          7           0        0.365804    0.053636   -0.898150
     10          6           0       -0.620363   -0.884323   -0.707096
     11          8           0       -0.411823   -1.980524   -0.209236
     12          6           0       -2.028945   -0.505571   -1.147314
     13          7           0       -2.951250   -1.582403   -0.966304
     14          7           0       -3.278181   -2.376218   -2.025523
     15          7           0       -4.066536   -3.291254   -1.640875
     16          6           0       -4.292106   -3.147117   -0.280838
     17          6           0       -5.079874   -3.894570    0.593558
     18          6           0       -5.107731   -3.499677    1.908621
     19          6           0       -4.362975   -2.382912    2.349625
     20          6           0       -3.582279   -1.642087    1.494670
     21          6           0       -3.564045   -2.048718    0.158083
     22          6           0        1.729438   -0.232816   -0.609615
     23          6           0        2.285820   -1.510044   -0.684485
     24          6           0        3.635057   -1.647405   -0.428903
     25          6           0        4.423867   -0.544067   -0.094460
     26          6           0        3.774134    0.679847   -0.050538
     27          7           0        2.474649    0.816706   -0.303633
     28          6           0        5.856815   -0.661172    0.192535
     29          6           0        6.515405   -1.694040    0.810230
     30          7           0        7.822344   -1.357428    0.852296
     31          7           0        8.055345   -0.152557    0.291768
     32          6           0        6.882644    0.278433   -0.108119
     33          1           0       -2.250810    4.712556    2.229110
     34          1           0       -0.606928    3.030990    2.983711
     35          1           0        0.448029    1.520009    1.361867
     36          1           0       -1.809289    3.338640   -1.768646
     37          1           0       -0.583526    1.357756   -2.234068
     38          1           0        0.977076    1.862678   -1.662863
     39          1           0       -2.373030    0.362834   -0.604129
     40          1           0       -2.033539   -0.265569   -2.200214
     41          1           0       -5.634598   -4.739728    0.239159
     42          1           0       -5.698376   -4.043070    2.619339
     43          1           0       -4.407499   -2.110733    3.386358
     44          1           0       -3.010477   -0.805344    1.842680
     45          1           0        1.687889   -2.358763   -0.921748
     46          1           0        4.083004   -2.618540   -0.510448
     47          1           0        4.297035    1.577935    0.207615
     48          1           0        6.149335   -2.605514    1.224281
     49          1           0        6.793019    1.216570   -0.605664
     50          1           0        8.577478   -1.869655    1.231503
 ---------------------------------------------------------------------

 The electronic state is 1-A.
 Alpha  occ. eigenvalues -- -104.82627 -20.55983 -15.66553 -15.65644 -15.65547
 Alpha  occ. eigenvalues --  -15.63320 -15.61458 -15.61372 -15.59086 -11.39785
 Alpha  occ. eigenvalues --  -11.34594 -11.32877 -11.31500 -11.30156 -11.29993
 Alpha  occ. eigenvalues --  -11.29656 -11.29462 -11.27840 -11.27369 -11.27277
 Alpha  occ. eigenvalues --  -11.27238 -11.26990 -11.26709 -11.26708 -11.26498
 Alpha  occ. eigenvalues --  -11.25826 -11.25713 -11.25655 -11.25590 -11.25452
 Alpha  occ. eigenvalues --  -11.25435 -11.24274 -10.56548  -8.03398  -8.03011
 Alpha  occ. eigenvalues --   -8.02993  -1.47695  -1.43306  -1.41345  -1.33005
 Alpha  occ. eigenvalues --   -1.26309  -1.25131  -1.20893  -1.17948  -1.13758
 Alpha  occ. eigenvalues --   -1.13098  -1.12964  -1.09132  -1.07336  -1.06813
 Alpha  occ. eigenvalues --   -1.05789  -1.04013  -1.02204  -1.01630  -0.97598
 Alpha  occ. eigenvalues --   -0.91537  -0.89035  -0.88818  -0.85852  -0.85388
 Alpha  occ. eigenvalues --   -0.84687  -0.83673  -0.82244  -0.81187  -0.78953
 Alpha  occ. eigenvalues --   -0.76921  -0.74082  -0.73057  -0.72660  -0.72430
 Alpha  occ. eigenvalues --   -0.71168  -0.69199  -0.67990  -0.66803  -0.66159
 Alpha  occ. eigenvalues --   -0.65717  -0.64661  -0.64314  -0.63760  -0.63169
 Alpha  occ. eigenvalues --   -0.62780  -0.62605  -0.62060  -0.61055  -0.60938
 Alpha  occ. eigenvalues --   -0.60021  -0.59478  -0.58941  -0.57832  -0.57197
 Alpha  occ. eigenvalues --   -0.55819  -0.54950  -0.54693  -0.53840  -0.53433
 Alpha  occ. eigenvalues --   -0.52614  -0.50855  -0.50759  -0.49655  -0.47192
 Alpha  occ. eigenvalues --   -0.46685  -0.46103  -0.45288  -0.44827  -0.43483
 Alpha  occ. eigenvalues --   -0.42975  -0.42441  -0.40583  -0.38636  -0.37436
 Alpha  occ. eigenvalues --   -0.36319  -0.35210  -0.33883  -0.32297  -0.31288
 Alpha virt. eigenvalues --    0.09670   0.09692   0.10766   0.11564   0.11636
 Alpha virt. eigenvalues --    0.15358   0.15706   0.16879   0.17700   0.20231
 Alpha virt. eigenvalues --    0.21145   0.21731   0.23931   0.24144   0.24244

 Mulliken atomic charges:
              1
     1  Cl   0.097861
     2  C   -0.314670
     3  C   -0.150797
     4  C   -0.200572
     5  C   -0.169649
     6  C   -0.040834
     7  C   -0.168656
     8  C   -0.075168
     9  N   -0.988441
    10  C    0.802181
    11  O   -0.580431
    12  C   -0.131792
    13  N   -0.883669
    14  N    0.097329
    15  N   -0.334625
    16  C   -0.019416
    17  C   -0.078717
    18  C   -0.233593
    19  C   -0.205167
    20  C   -0.068151
    21  C    0.485987
    22  C    0.587071
    23  C   -0.153760
    24  C   -0.164496
    25  C   -0.025078
    26  C    0.074689
    27  N   -0.633039
    28  C   -0.300927
    29  C    0.228384
    30  N   -0.682995
    31  N   -0.243094
    32  C    0.079146
    33  H    0.240056
    34  H    0.218043
    35  H    0.245885
    36  H    0.238116
    37  H    0.185326
    38  H    0.261112
    39  H    0.244635
    40  H    0.251955
    41  H    0.240889
    42  H    0.204266
    43  H    0.204960
    44  H    0.226563
    45  H    0.280065
    46  H    0.224026
    47  H    0.224836
    48  H    0.259896
    49  H    0.234044
    50  H    0.410414
 Sum of Mulliken atomic charges =   0.00000

 Dipole moment (field-independent basis, Debye):
    X=              3.4119    Y=              0.0766    Z=              3.9591  Tot=              5.2270
 Quadrupole moment (field-independent basis, Debye-Ang):
   XX=           -199.7391   YY=           -206.5857   ZZ=           -186.3774
   XY=            -20.7049   XZ=             -8.2755   YZ=            -12.7242

 Normal termination of Gaussian 09 at Sat Aug 27 12:46:35 2022.
