 Gaussian 09, Revision C.01,
 Gaussian 09:  EM64L-G09RevC.01 23-Sep-2011

 ---------------
 #p opt hf/6-31G
 ---------------

 (Enter /opt/gaussian/l101.exe)
 ---------
 Mol41.out
 ---------
 Charge =  0 Multiplicity = 1

 SCF Done:  E(RHF) =  -1780.29249556     A.U. after   17 cycles
 SCF Done:  E(RHF) =  -1780.32883741     A.U. after   15 cycles
 SCF Done:  E(RHF) =  -1780.33543896     A.U. after   15 cycles
 SCF Done:  E(RHF) =  -1780.33579863     A.U. after   17 cycles
 SCF Done:  E(RHF) =  -1780.33587429     A.U. after   15 cycles
 SCF Done:  E(RHF) =  -1780.33620741     A.U. after   14 cycles
 SCF Done:  E(RHF) =  -1780.33635591     A.U. after   14 cycles
 SCF Done:  E(RHF) =  -1780.33647630     A.U. after   16 cycles
 SCF Done:  E(RHF) =  -1780.33666157     A.U. after   14 cycles
 SCF Done:  E(RHF) =  -1780.33685011     A.U. after   16 cycles
 SCF Done:  E(RHF) =  -1780.33814464     A.U. after   12 cycles
 SCF Done:  E(RHF) =  -1780.33815281     A.U. after   13 cycles
 SCF Done:  E(RHF) =  -1780.33817212     A.U. after   12 cycles
 SCF Done:  E(RHF) =  -1780.33818072     A.U. after   12 cycles
 SCF Done:  E(RHF) =  -1780.33818529     A.U. after   11 cycles
 SCF Done:  E(RHF) =  -1780.33818973     A.U. after   11 cycles
 SCF Done:  E(RHF) =  -1780.33819135     A.U. after   11 cycles
 SCF Done:  E(RHF) =  -1780.33819177     A.U. after   10 cycles
 SCF Done:  E(RHF) =  -1780.33819196     A.U. after   10 cycles
 SCF Done:  E(RHF) =  -1780.33819203     A.U. after    9 cycles
 Optimization completed.
    -- Stationary point found.

                         Standard orientation:
 ---------------------------------------------------------------------
 Center     Atomic      Atomic             Coordinates (Angstroms)
 Number     Number       Type             X           Y           Z
 ---------------------------------------------------------------------
      1          6           0       -4.210438    1.129969    0.473338
      2          6           0       -5.284734    1.892299    0.031978
      3          6           0       -4.370405    0.125618    1.432021
      4          6           0       -6.572664    1.693925    0.529094
      5          6           0       -5.641112   -0.060421    1.920171
      6          6           0       -6.736860    0.714776    1.477236
      7          7           0       -3.143364    1.623513   -0.215592
      8          7           0       -4.810153    2.792373   -0.908086
      9          7           0       -3.560760    2.622154   -1.044664
     10          6           0       -1.759627    1.253197   -0.202991
     11          6           0       -1.503618   -0.063913   -0.918971
     12          7           0       -0.207092   -0.391011   -1.163718
     13          8           0       -2.433845   -0.799866   -1.236379
     14          6           0        0.080379   -1.648430   -1.882821
     15          6           0        1.821242   -4.313757    0.166640
     16          6           0        0.772977   -5.005871    0.732684
     17          6           0        1.619414   -3.238575   -0.675736
     18          6           0       -0.522392   -4.598764    0.439056
     19          6           0        0.322055   -2.828675   -0.965523
     20          6           0       -0.748912   -3.521090   -0.402144
     21         17           0        3.519790   -4.829921    0.535493
     22          6           0        2.560036    1.002134    0.894046
     23          6           0        3.120447    1.939317    0.028074
     24          6           0        1.465907    0.243592    0.511760
     25          6           0        2.553298    2.098337   -1.236547
     26          6           0        0.905812    0.412355   -0.747608
     27          6           0        1.459719    1.341743   -1.619897
     28          6           0        4.279931    2.748848    0.411213
     29          6           0        5.008872    2.749867    1.562166
     30          7           0        4.807950    3.695351   -0.456745
     31          7           0        5.985484    3.705276    1.389985
     32          6           0        5.816333    4.244382    0.152275
     33          1           0       -3.552329   -0.485820    1.754188
     34          1           0       -7.389867    2.289434    0.175201
     35          1           0       -5.813245   -0.822875    2.655094
     36          1           0       -7.708084    0.524154    1.889308
     37          1           0       -1.213456    2.054187   -0.674346
     38          1           0       -1.407590    1.177650    0.818555
     39          1           0       -0.758245   -1.848665   -2.529862
     40          1           0        0.950765   -1.471184   -2.497768
     41          1           0        0.958121   -5.839371    1.378636
     42          1           0        2.460625   -2.728237   -1.100185
     43          1           0       -1.351661   -5.129511    0.864534
     44          1           0       -1.749899   -3.209422   -0.626153
     45          1           0        2.975418    0.853854    1.871697
     46          1           0        1.053293   -0.485197    1.181759
     47          1           0        2.977940    2.817002   -1.906304
     48          1           0        1.030786    1.469932   -2.595366
     49          1           0        4.930231    2.178831    2.456644
     50          1           0        6.683043    3.951945    2.047403
     51          1           0        6.440077    5.012103   -0.240706
 ---------------------------------------------------------------------

 The electronic state is 1-A.
 Alpha  occ. eigenvalues -- -104.81935 -20.54453 -15.66035 -15.65132 -15.64321
 Alpha  occ. eigenvalues --  -15.61255 -15.60842 -15.57178 -11.38427 -11.32188
 Alpha  occ. eigenvalues --  -11.31941 -11.30539 -11.29678 -11.29145 -11.29045
 Alpha  occ. eigenvalues --  -11.28407 -11.27699 -11.26893 -11.26414 -11.26238
 Alpha  occ. eigenvalues --  -11.25957 -11.25943 -11.25858 -11.25587 -11.25533
 Alpha  occ. eigenvalues --  -11.25497 -11.25130 -11.25000 -11.24994 -11.24697
 Alpha  occ. eigenvalues --  -11.24688 -11.23877 -10.55856  -8.02706  -8.02323
 Alpha  occ. eigenvalues --   -8.02306  -1.47126  -1.41614  -1.38167  -1.28004
 Alpha  occ. eigenvalues --   -1.24475  -1.20300  -1.19936  -1.17478  -1.17268
 Alpha  occ. eigenvalues --   -1.12080  -1.07724  -1.06821  -1.05858  -1.04528
 Alpha  occ. eigenvalues --   -1.04198  -1.01933  -1.01631  -1.00653  -0.95557
 Alpha  occ. eigenvalues --   -0.88861  -0.88523  -0.86921  -0.84956  -0.84714
 Alpha  occ. eigenvalues --   -0.83802  -0.83092  -0.80901  -0.80366  -0.78319
 Alpha  occ. eigenvalues --   -0.77307  -0.74402  -0.72150  -0.71957  -0.71401
 Alpha  occ. eigenvalues --   -0.68566  -0.67512  -0.66810  -0.66048  -0.65316
 Alpha  occ. eigenvalues --   -0.65057  -0.64080  -0.63438  -0.63159  -0.62484
 Alpha  occ. eigenvalues --   -0.62446  -0.62139  -0.61195  -0.60934  -0.60332
 Alpha  occ. eigenvalues --   -0.60024  -0.58406  -0.58070  -0.56499  -0.54739
 Alpha  occ. eigenvalues --   -0.54469  -0.53510  -0.53342  -0.52920  -0.52439
 Alpha  occ. eigenvalues --   -0.51204  -0.51089  -0.50237  -0.49730  -0.49223
 Alpha  occ. eigenvalues --   -0.46482  -0.45422  -0.44618  -0.44127  -0.43531
 Alpha  occ. eigenvalues --   -0.42391  -0.41964  -0.39254  -0.38246  -0.35925
 Alpha  occ. eigenvalues --   -0.35154  -0.34361  -0.33438  -0.31824  -0.30715
 Alpha virt. eigenvalues --    0.09641   0.10154   0.11797   0.12307   0.13101
 Alpha virt. eigenvalues --    0.15932   0.17067   0.17369   0.18254   0.20635
 Alpha virt. eigenvalues --    0.20852   0.21871   0.23100   0.24350   0.25156

 Mulliken atomic charges:
              1
     1  C    0.487066
     2  C   -0.020105
     3  C   -0.061158
     4  C   -0.079789
     5  C   -0.208140
     6  C   -0.233685
     7  N   -0.879508
     8  N   -0.337455
     9  N    0.094390
    10  C   -0.122822
    11  C    0.805349
    12  N   -0.942311
    13  O   -0.612560
    14  C   -0.110690
    15  C   -0.316838
    16  C   -0.150521
    17  C   -0.152782
    18  C   -0.201062
    19  C   -0.011736
    20  C   -0.198487
    21  Cl   0.082480
    22  C   -0.198437
    23  C    0.018214
    24  C   -0.180109
    25  C   -0.199736
    26  C    0.241712
    27  C   -0.176193
    28  C    0.001853
    29  C    0.183525
    30  N   -0.560884
    31  N   -0.915907
    32  C    0.381092
    33  H    0.223334
    34  H    0.239283
    35  H    0.202374
    36  H    0.202472
    37  H    0.259976
    38  H    0.227931
    39  H    0.238812
    40  H    0.195263
    41  H    0.235595
    42  H    0.241591
    43  H    0.214636
    44  H    0.266441
    45  H    0.209871
    46  H    0.227853
    47  H    0.267748
    48  H    0.228953
    49  H    0.252016
    50  H    0.397559
    51  H    0.243524
 Sum of Mulliken atomic charges =   0.00000

 Dipole moment (field-independent basis, Debye):
    X=              5.9727    Y=              0.2773    Z=              6.1588  Tot=              8.5838
 Quadrupole moment (field-independent basis, Debye-Ang):
   XX=           -171.5955   YY=           -201.7532   ZZ=           -184.6076
   XY=             44.9339   XZ=             -0.4398   YZ=             10.9678

 Normal termination of Gaussian 09 at Tue Aug 30 13:01:34 2022.
