 Gaussian 09, Revision C.01,
 Gaussian 09:  EM64L-G09RevC.01 23-Sep-2011

 ---------------------------------------
 #p b3lyp/cc-pvdz pop=(chelpg,readradii)
 ---------------------------------------

 (Enter /opt/gaussian/l101.exe)
 ---------
 Mol01.log
 ---------
 Charge =  0 Multiplicity = 1

                         Standard orientation:
 ---------------------------------------------------------------------
 Center     Atomic      Atomic             Coordinates (Angstroms)
 Number     Number       Type             X           Y           Z
 ---------------------------------------------------------------------
      1          8           0        1.208349   -1.488859   -0.177291
      2          6           0        1.344019   -0.413569   -0.731711
      3          6           0        2.721329    0.036051   -1.261781
      4          7           0        3.735949   -0.963049   -1.044991
      5          7           0        4.232189   -1.654879   -2.116251
      6          7           0        5.125819   -2.490619   -1.712961
      7          6           0        5.244299   -2.373979   -0.341251
      8          6           0        6.080029   -3.046429    0.567669
      9          6           0        5.979819   -2.697699    1.907259
     10          6           0        5.067549   -1.703399    2.344199
     11          6           0        4.231439   -1.032099    1.460929
     12          6           0        4.339629   -1.387269    0.106299
     13          7           0        0.302429    0.479001   -0.931901
     14          6           0        0.515119    1.806831   -1.520921
     15          6           0        1.031909    2.858651   -0.558611
     16          6           0        1.586479    4.106941   -1.001981
     17          6           0        1.955649    4.927881    0.029739
     18         16           0        1.636419    4.196601    1.572179
     19          6           0        0.998019    2.770511    0.811489
     20          6           0       -1.028471    0.118971   -0.516621
     21          6           0       -2.095751    0.222991   -1.416611
     22          6           0       -3.403161   -0.089209   -1.041631
     23          6           0       -3.660401   -0.543599    0.262839
     24          6           0       -2.585671   -0.671289    1.160849
     25          6           0       -1.288041   -0.343859    0.780449
     26          7           0       -4.944191   -0.890069    0.726349
     27          6           0       -6.152161   -0.830419    0.060979
     28          8           0       -6.275671   -0.446269   -1.096051
     29          6           0       -7.323471   -1.279809    0.880889
     30          6           0       -8.454231   -1.976269    0.137379
     31          6           0       -8.649031   -0.576249    0.625769
     32          1           0        2.684829    0.191541   -2.349161
     33          1           0        3.018079    0.987501   -0.791931
     34          1           0        6.776119   -3.809989    0.217319
     35          1           0        6.611019   -3.196629    2.645469
     36          1           0        5.018589   -1.463319    3.408729
     37          1           0        3.522469   -0.279439    1.807179
     38          1           0        1.193269    1.733621   -2.384791
     39          1           0       -0.448151    2.140741   -1.931751
     40          1           0        1.706439    4.377031   -2.052541
     41          1           0        2.405149    5.917311   -0.024551
     42          1           0        0.618439    1.953101    1.419349
     43          1           0       -1.910861    0.544981   -2.443651
     44          1           0       -4.224521    0.000831   -1.747051
     45          1           0       -2.767801   -1.033519    2.176779
     46          1           0       -0.470521   -0.470589    1.488529
     47          1           0       -4.978911   -1.224989    1.681759
     48          1           0       -7.120681   -1.608879    1.903549
     49          1           0       -8.296411   -2.114419   -0.933891
     50          1           0       -8.961011   -2.792389    0.656439
     51          1           0       -9.293541   -0.402739    1.489939
     52          1           0       -8.620941    0.220941   -0.119371
 ---------------------------------------------------------------------

 SCF Done:  E(RB3LYP) =  -1711.53869829     A.U. after   15 cycles

 The electronic state is 1-A.
 Alpha  occ. eigenvalues --  -88.92079 -19.12133 -19.11810 -14.40812 -14.38640
 Alpha  occ. eigenvalues --  -14.38127 -14.38099 -14.34423 -10.30307 -10.30079
 Alpha  occ. eigenvalues --  -10.25556 -10.25364 -10.24621 -10.23639 -10.22920
 Alpha  occ. eigenvalues --  -10.22863 -10.22616 -10.21677 -10.21509 -10.20880
 Alpha  occ. eigenvalues --  -10.20794 -10.20575 -10.20541 -10.20433 -10.20308
 Alpha  occ. eigenvalues --  -10.20292 -10.20188 -10.19833 -10.19631 -10.19422
 Alpha  occ. eigenvalues --  -10.19234  -7.98285  -5.94608  -5.94229  -5.93921
 Alpha  occ. eigenvalues --   -1.09083  -1.05364  -1.04822  -0.96119  -0.95183
 Alpha  occ. eigenvalues --   -0.92129  -0.89463  -0.87359  -0.86169  -0.85660
 Alpha  occ. eigenvalues --   -0.78597  -0.77810  -0.76897  -0.76148  -0.75499
 Alpha  occ. eigenvalues --   -0.74254  -0.73743  -0.70048  -0.68097  -0.64636
 Alpha  occ. eigenvalues --   -0.63585  -0.63182  -0.61949  -0.61057  -0.59594
 Alpha  occ. eigenvalues --   -0.58588  -0.57923  -0.56622  -0.55807  -0.54452
 Alpha  occ. eigenvalues --   -0.53377  -0.52862  -0.52507  -0.52078  -0.51349
 Alpha  occ. eigenvalues --   -0.50192  -0.48023  -0.47359  -0.46708  -0.46432
 Alpha  occ. eigenvalues --   -0.45857  -0.45026  -0.44435  -0.44308  -0.44049
 Alpha  occ. eigenvalues --   -0.43876  -0.43410  -0.42967  -0.42370  -0.41944
 Alpha  occ. eigenvalues --   -0.41164  -0.40233  -0.39771  -0.39341  -0.38804
 Alpha  occ. eigenvalues --   -0.38390  -0.38171  -0.37428  -0.37051  -0.36432
 Alpha  occ. eigenvalues --   -0.36138  -0.35759  -0.35317  -0.32717  -0.32569
 Alpha  occ. eigenvalues --   -0.31899  -0.30829  -0.30092  -0.27610  -0.27224
 Alpha  occ. eigenvalues --   -0.26430  -0.26355  -0.26252  -0.26105  -0.25203
 Alpha  occ. eigenvalues --   -0.24662  -0.23231  -0.22104
 Alpha virt. eigenvalues --   -0.03944  -0.03191  -0.02926  -0.01949   0.00701
 Alpha virt. eigenvalues --    0.01082   0.01972   0.02692   0.03080   0.03612
 Alpha virt. eigenvalues --    0.03864   0.04724   0.05918   0.06484   0.07031

 Mulliken atomic charges:
              1
     1  O   -0.240083
     2  C    0.130120
     3  C    0.122558
     4  N   -0.226793
     5  N   -0.059587
     6  N   -0.182781
     7  C    0.010870
     8  C    0.044541
     9  C    0.037348
    10  C    0.039169
    11  C    0.029371
    12  C    0.214428
    13  N   -0.287988
    14  C    0.153149
    15  C   -0.029363
    16  C    0.049094
    17  C   -0.101277
    18  S    0.155865
    19  C   -0.136337
    20  C    0.078779
    21  C    0.055883
    22  C    0.044849
    23  C    0.062209
    24  C    0.017762
    25  C    0.076158
    26  N   -0.120551
    27  C    0.231745
    28  O   -0.272557
    29  C   -0.136939
    30  C    0.023198
    31  C    0.022292
    32  H    0.061349
    33  H    0.059341
    34  H   -0.022792
    35  H   -0.028173
    36  H   -0.027239
    37  H   -0.032814
    38  H    0.031021
    39  H    0.049880
    40  H   -0.027903
    41  H    0.018079
    42  H    0.007396
    43  H   -0.026229
    44  H   -0.001244
    45  H   -0.034367
    46  H   -0.023011
    47  H    0.080479
    48  H   -0.022219
    49  H    0.041555
    50  H    0.025824
    51  H    0.025281
    52  H    0.040655
 Sum of Mulliken atomic charges =   0.00000

 Dipole moment (field-independent basis, Debye):
    X=             -3.1672    Y=              4.0906    Z=              4.2098  Tot=              6.6698
 Quadrupole moment (field-independent basis, Debye-Ang):
   XX=           -185.3250   YY=           -184.5424   ZZ=           -178.1105
   XY=             21.6472   XZ=             -5.3707   YZ=            -17.1295

 Normal termination of Gaussian 09 at Sat Sep 10 07:05:10 2022.
