 Gaussian 09, Revision C.01,
 Gaussian 09:  EM64L-G09RevC.01 23-Sep-2011

 ---------------------------------------
 #p b3lyp/cc-pvdz pop=(chelpg,readradii)
 ---------------------------------------

 (Enter /opt/gaussian/l101.exe)
 ---------
 Mol18.log
 ---------
 Charge =  0 Multiplicity = 1

                         Standard orientation:
 ---------------------------------------------------------------------
 Center     Atomic      Atomic             Coordinates (Angstroms)
 Number     Number       Type             X           Y           Z
 ---------------------------------------------------------------------
      1          6           0       -8.268709   -2.503512    0.806061
      2          7           0       -7.234919   -1.545742    0.464461
      3          6           0       -5.908119   -1.779311    0.284331
      4          6           0       -5.299200   -0.546341    0.056851
      5          6           0       -6.385250    0.370589    0.130841
      6          7           0       -7.544980   -0.236752    0.375951
      7          6           0       -3.881260   -0.266771   -0.204509
      8          6           0       -3.012159   -1.254901   -0.706069
      9          6           0       -1.666179   -0.996890   -0.949839
     10          6           0       -1.133600    0.278880   -0.700739
     11          6           0       -1.987150    1.275420   -0.203219
     12          6           0       -3.334370    1.005019    0.037001
     13          7           0        0.240300    0.585900   -0.990449
     14          6           0        0.551090    1.915040   -1.531119
     15          6           0        1.074790    2.925950   -0.530659
     16          6           0        1.606929    4.199140   -0.928699
     17          6           0        2.009589    4.967660    0.130281
     18         16           0        1.752629    4.155600    1.643771
     19          6           0        1.093570    2.766090    0.833831
     20          6           0        1.241870   -0.341940   -0.737319
     21          8           0        1.044271   -1.420400   -0.207909
     22          6           0        2.665490    0.066371   -1.171529
     23          7           0        3.617241   -0.994329   -0.960479
     24          7           0        4.142291   -1.642999   -2.045409
     25          7           0        4.975901   -2.541289   -1.648249
     26          6           0        5.023501   -2.512129   -0.267639
     27          6           0        5.778051   -3.276169    0.640191
     28          6           0        5.617801   -3.005219    1.991731
     29          6           0        4.724181   -1.999559    2.441421
     30          6           0        3.967721   -1.238599    1.559341
     31          6           0        4.138021   -1.513839    0.192511
     32          1           0       -8.492419   -2.475292    1.884861
     33          1           0       -9.181559   -2.255362    0.248131
     34          1           0       -7.934119   -3.512942    0.531471
     35          1           0       -5.495449   -2.782531    0.348871
     36          1           0       -6.368190    1.449299   -0.013339
     37          1           0       -3.401459   -2.249201   -0.935639
     38          1           0       -1.027139   -1.787850   -1.334949
     39          1           0       -1.600030    2.270340    0.020891
     40          1           0       -3.964180    1.797289    0.446371
     41          1           0        1.271890    1.816960   -2.358199
     42          1           0       -0.371290    2.295520   -1.994069
     43          1           0        1.685549    4.524510   -1.967379
     44          1           0        2.447639    5.963540    0.111041
     45          1           0        0.748530    1.911070    1.411481
     46          1           0        2.696020    0.280831   -2.248969
     47          1           0        2.983350    0.974721   -0.635639
     48          1           0        6.459421   -4.048299    0.279841
     49          1           0        6.184791   -3.576419    2.729661
     50          1           0        4.623781   -1.824359    3.514901
     51          1           0        3.268140   -0.481629    1.914571
 ---------------------------------------------------------------------

 SCF Done:  E(RB3LYP) =  -1690.45635971     A.U. after   15 cycles

 The electronic state is 1-A.
 Alpha  occ. eigenvalues --  -88.92313 -19.12485 -14.41099 -14.40898 -14.38730
 Alpha  occ. eigenvalues --  -14.38576 -14.34516 -14.34307 -10.30611 -10.25736
 Alpha  occ. eigenvalues --  -10.25508 -10.24063 -10.23802 -10.23172 -10.22911
 Alpha  occ. eigenvalues --  -10.22897 -10.22405 -10.21997 -10.21115 -10.20846
 Alpha  occ. eigenvalues --  -10.20531 -10.20472 -10.20169 -10.19856 -10.19819
 Alpha  occ. eigenvalues --  -10.19653 -10.19571 -10.19446 -10.19390 -10.19248
 Alpha  occ. eigenvalues --  -10.19101  -7.98517  -5.94841  -5.94461  -5.94152
 Alpha  occ. eigenvalues --   -1.09170  -1.05694  -1.05300  -0.96435  -0.92220
 Alpha  occ. eigenvalues --   -0.89724  -0.86425  -0.86177  -0.84464  -0.80399
 Alpha  occ. eigenvalues --   -0.78427  -0.77752  -0.76828  -0.75404  -0.75273
 Alpha  occ. eigenvalues --   -0.74450  -0.73725  -0.70529  -0.69826  -0.65075
 Alpha  occ. eigenvalues --   -0.64626  -0.62213  -0.61938  -0.60521  -0.58756
 Alpha  occ. eigenvalues --   -0.58365  -0.56810  -0.56687  -0.55911  -0.53992
 Alpha  occ. eigenvalues --   -0.53298  -0.52581  -0.52208  -0.51520  -0.50436
 Alpha  occ. eigenvalues --   -0.48137  -0.47892  -0.47612  -0.46467  -0.46018
 Alpha  occ. eigenvalues --   -0.45849  -0.45133  -0.44413  -0.44208  -0.43900
 Alpha  occ. eigenvalues --   -0.43079  -0.42960  -0.42369  -0.42108  -0.41838
 Alpha  occ. eigenvalues --   -0.40878  -0.40273  -0.40133  -0.39650  -0.39054
 Alpha  occ. eigenvalues --   -0.38570  -0.37562  -0.37470  -0.37075  -0.36449
 Alpha  occ. eigenvalues --   -0.36048  -0.35362  -0.34966  -0.32805  -0.30977
 Alpha  occ. eigenvalues --   -0.30812  -0.29041  -0.27447  -0.26703  -0.26423
 Alpha  occ. eigenvalues --   -0.26313  -0.25819  -0.25505  -0.25389  -0.24697
 Alpha  occ. eigenvalues --   -0.23231  -0.21155
 Alpha virt. eigenvalues --   -0.03965  -0.03343  -0.03215  -0.01452   0.00668
 Alpha virt. eigenvalues --    0.01001   0.01711   0.01811   0.02495   0.03797
 Alpha virt. eigenvalues --    0.05020   0.05515   0.06295   0.06839   0.07036

 Mulliken atomic charges:
              1
     1  C    0.103396
     2  N   -0.132963
     3  C    0.126438
     4  C   -0.078204
     5  C    0.089564
     6  N   -0.177219
     7  C    0.065288
     8  C   -0.005263
     9  C    0.085233
    10  C    0.090441
    11  C    0.026969
    12  C   -0.002509
    13  N   -0.278942
    14  C    0.141799
    15  C   -0.024901
    16  C    0.047885
    17  C   -0.100109
    18  S    0.161458
    19  C   -0.150463
    20  C    0.129420
    21  O   -0.240676
    22  C    0.122293
    23  N   -0.227258
    24  N   -0.061562
    25  N   -0.182956
    26  C    0.010721
    27  C    0.044121
    28  C    0.037568
    29  C    0.039013
    30  C    0.032439
    31  C    0.213253
    32  H    0.048784
    33  H    0.049720
    34  H    0.033408
    35  H   -0.002701
    36  H   -0.018524
    37  H   -0.045204
    38  H   -0.017471
    39  H   -0.023721
    40  H   -0.042526
    41  H    0.037051
    42  H    0.048656
    43  H   -0.027130
    44  H    0.019346
    45  H    0.024282
    46  H    0.060610
    47  H    0.059902
    48  H   -0.023071
    49  H   -0.027883
    50  H   -0.026105
    51  H   -0.031697
 Sum of Mulliken atomic charges =   0.00000

 Dipole moment (field-independent basis, Debye):
    X=             -2.4722    Y=              2.8928    Z=              1.4597  Tot=              4.0757
 Quadrupole moment (field-independent basis, Debye-Ang):
   XX=           -189.6958   YY=           -168.8485   ZZ=           -184.7760
   XY=             31.9536   XZ=              9.4708   YZ=            -13.0273

 Normal termination of Gaussian 09 at Sat Sep 10 09:37:29 2022.
