 Gaussian 09, Revision C.01,
 Gaussian 09:  EM64L-G09RevC.01 23-Sep-2011

 ---------------------------------------
 #p b3lyp/cc-pvdz pop=(chelpg,readradii)
 ---------------------------------------

 (Enter /opt/gaussian/l101.exe)
 ---------
 Mol17.log
 ---------
 Charge =  0 Multiplicity = 1

                         Standard orientation:
 ---------------------------------------------------------------------
 Center     Atomic      Atomic             Coordinates (Angstroms)
 Number     Number       Type             X           Y           Z
 ---------------------------------------------------------------------
      1         16           0       -1.558581    5.322991   -0.210621
      2          6           0        0.145459    5.034331   -0.091631
      3          6           0       -1.902401    3.620461   -0.236741
      4          6           0        0.433169    3.697241   -0.073901
      5          6           0       -0.744851    2.873711   -0.156741
      6          7           0       -0.656581    1.446991   -0.154171
      7          6           0        3.237929   -0.282239    0.163569
      8          6           0        2.659939   -0.021729   -1.096431
      9          6           0        2.479659    0.029161    1.311189
     10          6           0        1.391399    0.550411   -1.197711
     11          6           0        1.210789    0.597321    1.210949
     12          6           0        0.657999    0.858451   -0.047691
     13          6           0       -1.781581    0.640121   -0.237041
     14          6           0       -1.520141   -0.878309   -0.190431
     15          8           0       -2.918101    1.074201   -0.315331
     16          6           0       -3.852351   -1.818429    0.277449
     17          7           0       -2.713851   -1.640729   -0.460481
     18          6           0       -4.611991   -2.717409   -0.501691
     19          7           0       -2.784001   -2.376429   -1.613011
     20          7           0       -3.901871   -3.015539   -1.648881
     21          6           0       -4.310091   -1.330789    1.512809
     22          6           0       -5.551011   -1.789019    1.936599
     23          6           0       -5.869561   -3.165569   -0.060101
     24          6           0       -6.322851   -2.694059    1.163779
     25          6           0        7.167369   -1.978429    0.621029
     26          7           0        6.396569   -2.274199   -0.461001
     27          6           0        6.698579   -1.111619    1.567909
     28          6           0        5.118209   -1.753729   -0.741371
     29          6           0        5.403079   -0.555529    1.384259
     30          6           0        4.601009   -0.851359    0.299129
     31          8           0        4.564469   -2.084889   -1.786181
     32          1           0        0.845959    5.864911   -0.043181
     33          1           0       -2.919521    3.259511   -0.313851
     34          1           0        1.446549    3.307361   -0.006991
     35          1           0        3.209849   -0.281829   -1.997771
     36          1           0        2.875529   -0.198259    2.302589
     37          1           0        0.961229    0.759181   -2.179331
     38          1           0        0.638619    0.834671    2.110099
     39          1           0       -0.783901   -1.182829   -0.944551
     40          1           0       -1.110131   -1.151839    0.795619
     41          1           0       -3.736681   -0.612609    2.098999
     42          1           0       -5.950541   -1.435049    2.889699
     43          1           0       -6.453641   -3.858389   -0.667731
     44          1           0       -7.294451   -3.017409    1.542989
     45          1           0        8.145229   -2.459359    0.668489
     46          1           0        6.739519   -2.907009   -1.178951
     47          1           0        7.306729   -0.853549    2.433059
     48          1           0        5.037569    0.151461    2.132519
 ---------------------------------------------------------------------

 SCF Done:  E(RB3LYP) =  -1709.15780730     A.U. after   16 cycles

 The electronic state is 1-A.
 Alpha  occ. eigenvalues --  -88.90490 -19.12654 -19.11615 -14.40744 -14.40540
 Alpha  occ. eigenvalues --  -14.38982 -14.38365 -14.34169 -10.30537 -10.30528
 Alpha  occ. eigenvalues --  -10.26929 -10.25075 -10.24729 -10.23778 -10.23049
 Alpha  occ. eigenvalues --  -10.22588 -10.22428 -10.22368 -10.21583 -10.21492
 Alpha  occ. eigenvalues --  -10.21482 -10.21406 -10.21077 -10.20576 -10.20532
 Alpha  occ. eigenvalues --  -10.20403 -10.19855 -10.19620 -10.19529 -10.19366
 Alpha  occ. eigenvalues --  -10.18974  -7.96701  -5.93026  -5.92647  -5.92334
 Alpha  occ. eigenvalues --   -1.08805  -1.05760  -1.05319  -0.97473  -0.96945
 Alpha  occ. eigenvalues --   -0.91833  -0.88326  -0.87198  -0.85876  -0.83933
 Alpha  occ. eigenvalues --   -0.79321  -0.77541  -0.76943  -0.76552  -0.75452
 Alpha  occ. eigenvalues --   -0.74574  -0.73139  -0.71695  -0.67750  -0.66182
 Alpha  occ. eigenvalues --   -0.64352  -0.63657  -0.62947  -0.61931  -0.61412
 Alpha  occ. eigenvalues --   -0.58271  -0.57287  -0.56875  -0.55245  -0.53338
 Alpha  occ. eigenvalues --   -0.52933  -0.52116  -0.51867  -0.51281  -0.50863
 Alpha  occ. eigenvalues --   -0.49967  -0.48535  -0.46581  -0.46202  -0.46116
 Alpha  occ. eigenvalues --   -0.45684  -0.45009  -0.44650  -0.44477  -0.43926
 Alpha  occ. eigenvalues --   -0.43661  -0.43137  -0.42761  -0.41426  -0.40750
 Alpha  occ. eigenvalues --   -0.40135  -0.40049  -0.39436  -0.38890  -0.37890
 Alpha  occ. eigenvalues --   -0.37493  -0.37083  -0.36580  -0.36169  -0.36033
 Alpha  occ. eigenvalues --   -0.35063  -0.34772  -0.33120  -0.32432  -0.30848
 Alpha  occ. eigenvalues --   -0.30587  -0.28200  -0.27738  -0.26797  -0.26708
 Alpha  occ. eigenvalues --   -0.25987  -0.24505  -0.24403  -0.23052  -0.22719
 Alpha  occ. eigenvalues --   -0.21925
 Alpha virt. eigenvalues --   -0.07574  -0.03681  -0.03329  -0.02340  -0.01555
 Alpha virt. eigenvalues --   -0.00339   0.00689   0.01297   0.02769   0.03976
 Alpha virt. eigenvalues --    0.04143   0.04774   0.06281   0.07013   0.07544

 Mulliken atomic charges:
              1
     1  S    0.151229
     2  C   -0.104311
     3  C   -0.124243
     4  C    0.041738
     5  C    0.155064
     6  N   -0.242410
     7  C    0.047581
     8  C    0.054683
     9  C    0.017557
    10  C    0.095363
    11  C    0.092645
    12  C   -0.065313
    13  C    0.134727
    14  C    0.146708
    15  O   -0.246723
    16  C    0.212314
    17  N   -0.229831
    18  C    0.010272
    19  N   -0.058674
    20  N   -0.183130
    21  C    0.032789
    22  C    0.038308
    23  C    0.043887
    24  C    0.036971
    25  C    0.140833
    26  N   -0.056645
    27  C   -0.041290
    28  C    0.137164
    29  C    0.091307
    30  C   -0.087378
    31  O   -0.262184
    32  H    0.009716
    33  H    0.034319
    34  H   -0.010058
    35  H   -0.011632
    36  H   -0.030109
    37  H   -0.026648
    38  H   -0.036109
    39  H    0.063752
    40  H    0.051040
    41  H   -0.032269
    42  H   -0.026846
    43  H   -0.023664
    44  H   -0.028755
    45  H    0.022446
    46  H    0.099740
    47  H   -0.016976
    48  H   -0.016953
 Sum of Mulliken atomic charges =   0.00000

 Dipole moment (field-independent basis, Debye):
    X=              8.7704    Y=              0.6531    Z=              5.4640  Tot=             10.3538
 Quadrupole moment (field-independent basis, Debye-Ang):
   XX=           -138.1717   YY=           -188.5764   ZZ=           -185.5423
   XY=            -11.8869   XZ=             -2.2255   YZ=             -8.9776

 Normal termination of Gaussian 09 at Sat Sep 10 09:24:49 2022.
