 Gaussian 09, Revision C.01,
 Gaussian 09:  EM64L-G09RevC.01 23-Sep-2011

 ---------------------------------------
 #p b3lyp/cc-pvdz pop=(chelpg,readradii)
 ---------------------------------------

 (Enter /opt/gaussian/l101.exe)
 ---------
 Mol10.log
 ---------
 Charge =  0 Multiplicity = 1

                         Standard orientation:
 ---------------------------------------------------------------------
 Center     Atomic      Atomic             Coordinates (Angstroms)
 Number     Number       Type             X           Y           Z
 ---------------------------------------------------------------------
      1          7           0        6.871180   -1.165798    0.629051
      2          6           0        5.794440   -2.020529    0.521051
      3          8           0        5.900150   -3.220629    0.731961
      4          6           0        4.478190   -1.388949    0.166301
      5          6           0        3.431930   -2.235209   -0.229599
      6          6           0        2.181710   -1.731369   -0.573809
      7          6           0        1.938950   -0.346369   -0.512249
      8          6           0        2.975189    0.504991   -0.091739
      9          6           0        4.228020   -0.012239    0.239651
     10          7           0        0.678479    0.211740   -0.905929
     11          6           0        0.675979    1.536580   -1.541359
     12          6           0        0.337229    2.699940   -0.631509
     13          6           0        0.081229    4.021080   -1.132839
     14          6           0       -0.191292    4.926790   -0.143009
     15         16           0       -0.145771    4.189730    1.428721
     16          6           0        0.247669    2.644170    0.738591
     17          6           0       -0.514460   -0.462520   -0.655389
     18          8           0       -0.579420   -1.509570   -0.040439
     19          6           0       -1.793241    0.201400   -1.207049
     20          7           0       -2.958180   -0.618450   -0.997299
     21          7           0       -3.545640   -1.224511   -2.075889
     22          7           0       -4.571760   -1.897111   -1.684989
     23          6           0       -4.691740   -1.754511   -0.315709
     24          6           0       -5.642260   -2.275411    0.579931
     25          6           0       -5.506950   -1.942861    1.920391
     26          6           0       -4.448570   -1.113101    2.371091
     27          6           0       -3.498320   -0.593431    1.501251
     28          6           0       -3.643330   -0.929601    0.145231
     29          1           0        6.876500   -0.306518    0.092271
     30          1           0        7.768830   -1.630738    0.722591
     31          1           0        3.625460   -3.307939   -0.268169
     32          1           0        1.390370   -2.410180   -0.879879
     33          1           0        2.802779    1.577061    0.006411
     34          1           0        4.998149    0.675121    0.595701
     35          1           0        1.672499    1.684401   -1.982559
     36          1           0       -0.018171    1.529730   -2.395689
     37          1           0        0.098189    4.280970   -2.192599
     38          1           0       -0.422982    5.985140   -0.244389
     39          1           0        0.396849    1.780960    1.383991
     40          1           0       -1.936501    1.192590   -0.748069
     41          1           0       -1.720981    0.338330   -2.295079
     42          1           0       -6.449350   -2.914701    0.219131
     43          1           0       -6.223520   -2.327401    2.648981
     44          1           0       -4.375720   -0.882481    3.436271
     45          1           0       -2.676670    0.027360    1.859461
 ---------------------------------------------------------------------

 SCF Done:  E(RB3LYP) =  -1594.83454280     A.U. after   16 cycles

 The electronic state is 1-A.
 Alpha  occ. eigenvalues --  -88.92811 -19.13334 -19.10817 -14.41216 -14.39487
 Alpha  occ. eigenvalues --  -14.39029 -14.35366 -14.34810 -10.31409 -10.29176
 Alpha  occ. eigenvalues --  -10.26422 -10.26042 -10.25292 -10.23657 -10.23432
 Alpha  occ. eigenvalues --  -10.23203 -10.22554 -10.21621 -10.21224 -10.21105
 Alpha  occ. eigenvalues --  -10.20911 -10.20623 -10.20420 -10.20115 -10.20063
 Alpha  occ. eigenvalues --  -10.20049 -10.19871 -10.19456  -7.99014  -5.95338
 Alpha  occ. eigenvalues --   -5.94957  -5.94650  -1.09487  -1.06543  -1.03619
 Alpha  occ. eigenvalues --   -0.97341  -0.92588  -0.90604  -0.90255  -0.86820
 Alpha  occ. eigenvalues --   -0.86432  -0.79616  -0.78470  -0.77321  -0.76388
 Alpha  occ. eigenvalues --   -0.76067  -0.74966  -0.74200  -0.70826  -0.66808
 Alpha  occ. eigenvalues --   -0.64907  -0.62817  -0.62381  -0.61056  -0.59278
 Alpha  occ. eigenvalues --   -0.58414  -0.57299  -0.56498  -0.55040  -0.54158
 Alpha  occ. eigenvalues --   -0.52997  -0.52612  -0.52007  -0.51504  -0.49242
 Alpha  occ. eigenvalues --   -0.48032  -0.46919  -0.46687  -0.46145  -0.45628
 Alpha  occ. eigenvalues --   -0.44750  -0.44616  -0.43808  -0.43519  -0.43200
 Alpha  occ. eigenvalues --   -0.42833  -0.42513  -0.41726  -0.41410  -0.40614
 Alpha  occ. eigenvalues --   -0.39890  -0.39204  -0.38426  -0.37711  -0.37290
 Alpha  occ. eigenvalues --   -0.36707  -0.36533  -0.35837  -0.35585  -0.33098
 Alpha  occ. eigenvalues --   -0.31245  -0.30592  -0.28213  -0.27825  -0.27129
 Alpha  occ. eigenvalues --   -0.26693  -0.26643  -0.26069  -0.25498  -0.24963
 Alpha  occ. eigenvalues --   -0.24065  -0.23475
 Alpha virt. eigenvalues --   -0.05130  -0.04220  -0.03849  -0.02320  -0.00038
 Alpha virt. eigenvalues --    0.00733   0.01318   0.01980   0.03508   0.04023
 Alpha virt. eigenvalues --    0.04697   0.05800   0.06012   0.06552   0.07337

 Mulliken atomic charges:
              1
     1  N   -0.088302
     2  C    0.111004
     3  O   -0.244187
     4  C   -0.023813
     5  C    0.067883
     6  C    0.073901
     7  C    0.105455
     8  C    0.017964
     9  C    0.018860
    10  N   -0.280161
    11  C    0.139998
    12  C   -0.026531
    13  C    0.047682
    14  C   -0.099796
    15  S    0.165378
    16  C   -0.150056
    17  C    0.134732
    18  O   -0.233044
    19  C    0.122344
    20  N   -0.228621
    21  N   -0.061359
    22  N   -0.181255
    23  C    0.011376
    24  C    0.044995
    25  C    0.038090
    26  C    0.039943
    27  C    0.031440
    28  C    0.213128
    29  H    0.093980
    30  H    0.097525
    31  H   -0.017956
    32  H   -0.006252
    33  H   -0.018469
    34  H   -0.039998
    35  H    0.047770
    36  H    0.038851
    37  H   -0.026208
    38  H    0.020775
    39  H    0.024700
    40  H    0.061317
    41  H    0.062077
    42  H   -0.021755
    43  H   -0.026549
    44  H   -0.024862
    45  H   -0.031996
 Sum of Mulliken atomic charges =   0.00000

 Dipole moment (field-independent basis, Debye):
    X=              2.8621    Y=              7.8535    Z=             -0.2503  Tot=              8.3626
 Quadrupole moment (field-independent basis, Debye-Ang):
   XX=           -163.1987   YY=           -172.5298   ZZ=           -167.0624
   XY=             11.6358   XZ=            -20.2123   YZ=             -5.5163

 Normal termination of Gaussian 09 at Sat Sep 10 07:54:44 2022.
