 Gaussian 09, Revision C.01,
 Gaussian 09:  EM64L-G09RevC.01 23-Sep-2011

 ---------------------------------------
 #p b3lyp/cc-pvdz pop=(chelpg,readradii)
 ---------------------------------------

 (Enter /opt/gaussian/l101.exe)
 ---------
 Mol16.log
 ---------
 Charge =  0 Multiplicity = 1

                         Standard orientation:
 ---------------------------------------------------------------------
 Center     Atomic      Atomic             Coordinates (Angstroms)
 Number     Number       Type             X           Y           Z
 ---------------------------------------------------------------------
      1          6           0        6.102190    0.995519    2.565160
      2          8           0        5.261420    0.471780    1.532980
      3          6           0        5.796580   -0.467011    0.716660
      4          7           0        7.066889   -0.807351    0.899860
      5          6           0        7.598259   -1.741391    0.094240
      6          6           0        6.881109   -2.367441   -0.917710
      7          6           0        5.542519   -1.998571   -1.095050
      8          6           0        4.947629   -1.031510   -0.278510
      9          6           0        3.520069   -0.657690   -0.451720
     10          6           0        2.562379   -1.641610   -0.761760
     11          6           0        1.222569   -1.328109   -0.979510
     12          6           0        0.787570    0.003901   -0.889250
     13          6           0        1.729780    0.995230   -0.570570
     14          6           0        3.068680    0.669560   -0.356930
     15          7           0       -0.576010    0.369731   -1.154680
     16          6           0       -0.827730    1.656851   -1.815850
     17          6           0       -1.235270    2.795501   -0.902830
     18          6           0       -1.720329    4.050391   -1.405260
     19          6           0       -2.015989    4.947161   -0.414020
     20         16           0       -1.712839    4.281811    1.161280
     21          6           0       -1.180310    2.778781    0.469890
     22          6           0       -1.625510   -0.454539   -0.766740
     23          8           0       -1.477181   -1.485659   -0.137200
     24          6           0       -3.037580    0.010662   -1.181170
     25          7           0       -4.048241   -0.950678   -0.821400
     26          7           0       -4.672261   -1.661068   -1.811200
     27          7           0       -5.548161   -2.448378   -1.289390
     28          6           0       -5.525491   -2.278468    0.081730
     29          6           0       -6.288391   -2.887847    1.093610
     30          6           0       -6.042821   -2.497178    2.402340
     31          6           0       -5.057361   -1.524068    2.708860
     32          6           0       -4.291531   -0.915248    1.722810
     33          6           0       -4.548241   -1.310888    0.399710
     34          1           0        6.989410    1.491949    2.143130
     35          1           0        5.477590    1.717979    3.106480
     36          1           0        6.442030    0.197429    3.242830
     37          1           0        8.648869   -1.988771    0.277790
     38          1           0        7.350779   -3.116361   -1.556960
     39          1           0        4.952039   -2.455190   -1.892190
     40          1           0        2.865849   -2.688990   -0.819280
     41          1           0        0.513399   -2.121229   -1.201510
     42          1           0        1.421840    2.037051   -0.472970
     43          1           0        3.771910    1.462350   -0.106890
     44          1           0        0.091680    1.925291   -2.356470
     45          1           0       -1.593600    1.525631   -2.596100
     46          1           0       -1.844139    4.270731   -2.466900
     47          1           0       -2.400169    5.960172   -0.515520
     48          1           0       -0.847620    1.968441    1.115310
     49          1           0       -3.265890    0.989062   -0.729620
     50          1           0       -3.106670    0.116862   -2.272840
     51          1           0       -7.041001   -3.636907    0.843010
     52          1           0       -6.612951   -2.946577    3.217970
     53          1           0       -4.891921   -1.251438    3.753600
     54          1           0       -3.522110   -0.183178    1.969240
 ---------------------------------------------------------------------

 SCF Done:  E(RB3LYP) =  -1787.76463871     A.U. after   15 cycles

 The electronic state is 1-A.
 Alpha  occ. eigenvalues --  -88.92400 -19.17697 -19.12679 -14.40955 -14.38794
 Alpha  occ. eigenvalues --  -14.38783 -14.34567 -14.32684 -10.30795 -10.28146
 Alpha  occ. eigenvalues --  -10.25862 -10.25612 -10.24149 -10.23884 -10.23253
 Alpha  occ. eigenvalues --  -10.22982 -10.22960 -10.22684 -10.22086 -10.21204
 Alpha  occ. eigenvalues --  -10.20936 -10.20889 -10.20874 -10.20566 -10.20207
 Alpha  occ. eigenvalues --  -10.19884 -10.19852 -10.19686 -10.19663 -10.19602
 Alpha  occ. eigenvalues --  -10.19445 -10.19432 -10.19278  -7.98603  -5.94927
 Alpha  occ. eigenvalues --   -5.94547  -5.94239  -1.09228  -1.08074  -1.05885
 Alpha  occ. eigenvalues --   -0.96634  -0.93992  -0.92286  -0.89816  -0.86581
 Alpha  occ. eigenvalues --   -0.86221  -0.81816  -0.78820  -0.78086  -0.77430
 Alpha  occ. eigenvalues --   -0.76755  -0.75535  -0.74948  -0.74530  -0.73354
 Alpha  occ. eigenvalues --   -0.70541  -0.70246  -0.65917  -0.64696  -0.63003
 Alpha  occ. eigenvalues --   -0.62246  -0.61651  -0.60571  -0.59202  -0.58570
 Alpha  occ. eigenvalues --   -0.56930  -0.56015  -0.54119  -0.53621  -0.52674
 Alpha  occ. eigenvalues --   -0.52301  -0.52158  -0.51533  -0.50263  -0.49522
 Alpha  occ. eigenvalues --   -0.47721  -0.47253  -0.46782  -0.46490  -0.46163
 Alpha  occ. eigenvalues --   -0.45394  -0.45224  -0.44444  -0.44153  -0.43588
 Alpha  occ. eigenvalues --   -0.43051  -0.42987  -0.42471  -0.42226  -0.41381
 Alpha  occ. eigenvalues --   -0.40638  -0.40407  -0.39922  -0.39474  -0.39266
 Alpha  occ. eigenvalues --   -0.38631  -0.37606  -0.37412  -0.37100  -0.36492
 Alpha  occ. eigenvalues --   -0.36121  -0.35395  -0.35086  -0.34489  -0.33105
 Alpha  occ. eigenvalues --   -0.32856  -0.31069  -0.30901  -0.28454  -0.27559
 Alpha  occ. eigenvalues --   -0.26980  -0.26695  -0.26428  -0.25980  -0.25525
 Alpha  occ. eigenvalues --   -0.24771  -0.24645  -0.23274  -0.21794
 Alpha virt. eigenvalues --   -0.04631  -0.04003  -0.03426  -0.01536  -0.01353
 Alpha virt. eigenvalues --   -0.00157   0.00916   0.01721   0.02377   0.02415
 Alpha virt. eigenvalues --    0.03761   0.04983   0.06258   0.06622   0.06879

 Mulliken atomic charges:
              1
     1  C    0.136908
     2  O   -0.280142
     3  C    0.207141
     4  N   -0.233610
     5  C    0.102633
     6  C   -0.020263
     7  C    0.086897
     8  C   -0.039345
     9  C    0.039175
    10  C    0.014816
    11  C    0.073575
    12  C    0.096556
    13  C    0.018566
    14  C    0.046644
    15  N   -0.278962
    16  C    0.140701
    17  C   -0.025558
    18  C    0.047738
    19  C   -0.099978
    20  S    0.161876
    21  C   -0.149178
    22  C    0.131594
    23  O   -0.238969
    24  C    0.122465
    25  N   -0.227504
    26  N   -0.061610
    27  N   -0.182663
    28  C    0.010875
    29  C    0.044256
    30  C    0.037724
    31  C    0.039308
    32  C    0.032055
    33  C    0.213218
    34  H    0.028923
    35  H    0.029542
    36  H    0.030147
    37  H   -0.006101
    38  H   -0.028274
    39  H   -0.028143
    40  H   -0.033795
    41  H   -0.014069
    42  H   -0.021703
    43  H   -0.040092
    44  H    0.048796
    45  H    0.036955
    46  H   -0.027001
    47  H    0.019499
    48  H    0.024643
    49  H    0.060511
    50  H    0.060931
    51  H   -0.022789
    52  H   -0.027576
    53  H   -0.025797
    54  H   -0.031549
 Sum of Mulliken atomic charges =   0.00000

 Dipole moment (field-independent basis, Debye):
    X=              2.6168    Y=              4.8866    Z=              0.3134  Tot=              5.5520
 Quadrupole moment (field-independent basis, Debye-Ang):
   XX=           -205.6045   YY=           -187.7034   ZZ=           -188.1338
   XY=            -17.7575   XZ=            -12.5852   YZ=             -5.8695

 Normal termination of Gaussian 09 at Sat Sep 10 09:12:20 2022.
