 Gaussian 09, Revision C.01,
 Gaussian 09:  EM64L-G09RevC.01 23-Sep-2011

 ---------------------------------------
 #p b3lyp/cc-pvdz pop=(chelpg,readradii)
 ---------------------------------------

 (Enter /opt/gaussian/l101.exe)
 ---------
 Mol23.log
 ---------
 Charge =  0 Multiplicity = 1

                         Standard orientation:
 ---------------------------------------------------------------------
 Center     Atomic      Atomic             Coordinates (Angstroms)
 Number     Number       Type             X           Y           Z
 ---------------------------------------------------------------------
      1          8           0        1.344080   -0.759320   -0.391080
      2          6           0        1.427410    0.454040   -0.464740
      3          6           0        2.803750    1.142380   -0.568090
      4          7           0        3.878620    0.195910   -0.732780
      5          7           0        4.598680    0.217020   -1.898060
      6          7           0        5.544020   -0.655030   -1.836250
      7          6           0        5.478170   -1.283690   -0.607660
      8          6           0        6.287080   -2.289739   -0.050080
      9          6           0        5.980630   -2.718149    1.233580
     10          6           0        4.888860   -2.167890    1.952860
     11          6           0        4.075100   -1.179210    1.414840
     12          6           0        4.395100   -0.742820    0.118440
     13          7           0        0.325100    1.289510   -0.457890
     14          6           0        0.413660    2.760510   -0.423580
     15          6           0        0.399260    3.347980    0.974220
     16          6           0       -0.045730    4.780340    1.167530
     17          6           0       -0.909260    3.647010    1.669870
     18          6           0       -0.983700    0.700200   -0.360010
     19          6           0       -1.329540   -0.131920    0.711690
     20          6           0       -2.609580   -0.676631    0.791540
     21          6           0       -3.583370   -0.406061   -0.187680
     22          6           0       -3.220330    0.426109   -1.261570
     23          6           0       -1.936530    0.964310   -1.351400
     24          6           0       -4.946510   -0.983891   -0.092590
     25          6           0       -5.170650   -2.296621    0.354440
     26          6           0       -6.475180   -2.782891    0.420770
     27          6           0       -7.523950   -1.944031    0.034240
     28          7           0       -7.342680   -0.685941   -0.390220
     29          6           0       -6.085670   -0.233391   -0.443520
     30          1           0        2.856950    1.797850   -1.447720
     31          1           0        2.981870    1.763710    0.326130
     32          1           0        7.120490   -2.706109   -0.617810
     33          1           0        6.583781   -3.497819    1.703220
     34          1           0        4.676890   -2.541450    2.957220
     35          1           0        3.220240   -0.783420    1.962810
     36          1           0        1.318000    3.079200   -0.960140
     37          1           0       -0.434800    3.162720   -0.997110
     38          1           0        1.219280    3.009190    1.615890
     39          1           0        0.490879    5.391150    1.896450
     40          1           0       -0.388261    5.329810    0.286270
     41          1           0       -1.834010    3.430850    1.129670
     42          1           0       -0.967710    3.478470    2.747290
     43          1           0       -0.592980   -0.352830    1.483490
     44          1           0       -2.865820   -1.304021    1.647780
     45          1           0       -3.937970    0.624669   -2.059890
     46          1           0       -1.666580    1.578020   -2.213450
     47          1           0       -4.327370   -2.936781    0.623490
     48          1           0       -6.677889   -3.802131    0.755960
     49          1           0       -8.559720   -2.298131    0.066290
     50          1           0       -5.968230    0.805659   -0.769470
 ---------------------------------------------------------------------

 SCF Done:  E(RB3LYP) =  -1238.09052588     A.U. after   15 cycles

 The electronic state is 1-A.
 Alpha  occ. eigenvalues --  -19.12302 -14.41120 -14.38933 -14.38083 -14.34716
 Alpha  occ. eigenvalues --  -14.33154 -10.30597 -10.25917 -10.25173 -10.24303
 Alpha  occ. eigenvalues --  -10.23111 -10.22825 -10.22747 -10.21727 -10.21507
 Alpha  occ. eigenvalues --  -10.21462 -10.21413 -10.21030 -10.20934 -10.20841
 Alpha  occ. eigenvalues --  -10.20741 -10.20710 -10.20611 -10.20569 -10.20539
 Alpha  occ. eigenvalues --  -10.20319 -10.19980 -10.19808 -10.19410  -1.09345
 Alpha  occ. eigenvalues --   -1.05574  -0.96138  -0.94722  -0.92423  -0.88044
 Alpha  occ. eigenvalues --   -0.87101  -0.86356  -0.82017  -0.78823  -0.77741
 Alpha  occ. eigenvalues --   -0.76858  -0.76461  -0.75134  -0.74352  -0.72432
 Alpha  occ. eigenvalues --   -0.66020  -0.64825  -0.64495  -0.62631  -0.62187
 Alpha  occ. eigenvalues --   -0.61815  -0.61495  -0.59983  -0.59080  -0.56755
 Alpha  occ. eigenvalues --   -0.53862  -0.53273  -0.52909  -0.52327  -0.51886
 Alpha  occ. eigenvalues --   -0.50314  -0.50149  -0.48961  -0.48779  -0.47127
 Alpha  occ. eigenvalues --   -0.46598  -0.46584  -0.45569  -0.45274  -0.44827
 Alpha  occ. eigenvalues --   -0.44428  -0.43662  -0.43518  -0.42155  -0.41687
 Alpha  occ. eigenvalues --   -0.40863  -0.40610  -0.40092  -0.39263  -0.38365
 Alpha  occ. eigenvalues --   -0.38143  -0.37779  -0.37398  -0.36782  -0.36623
 Alpha  occ. eigenvalues --   -0.35951  -0.35536  -0.32986  -0.31958  -0.31131
 Alpha  occ. eigenvalues --   -0.30909  -0.30701  -0.28746  -0.27642  -0.26794
 Alpha  occ. eigenvalues --   -0.26534  -0.26522  -0.26024  -0.24880  -0.23617
 Alpha  occ. eigenvalues --   -0.23267
 Alpha virt. eigenvalues --   -0.05103  -0.04127  -0.03179  -0.02387  -0.00416
 Alpha virt. eigenvalues --    0.00547   0.01550   0.03012   0.03734   0.04925
 Alpha virt. eigenvalues --    0.05704   0.06108   0.06720   0.06854   0.08151

 Mulliken atomic charges:
              1
     1  O   -0.243858
     2  C    0.135052
     3  C    0.114640
     4  N   -0.228293
     5  N   -0.060801
     6  N   -0.181608
     7  C    0.010723
     8  C    0.044604
     9  C    0.037656
    10  C    0.038942
    11  C    0.034557
    12  C    0.213237
    13  N   -0.285818
    14  C    0.153063
    15  C   -0.106296
    16  C   -0.002193
    17  C    0.007574
    18  C    0.084063
    19  C    0.096346
    20  C    0.016948
    21  C    0.034759
    22  C    0.023014
    23  C    0.060678
    24  C   -0.046057
    25  C    0.075663
    26  C   -0.007994
    27  C    0.105402
    28  N   -0.173367
    29  C    0.099345
    30  H    0.063560
    31  H    0.049855
    32  H   -0.022422
    33  H   -0.027440
    34  H   -0.026398
    35  H   -0.033749
    36  H    0.031207
    37  H    0.006500
    38  H   -0.012890
    39  H    0.026746
    40  H    0.021953
    41  H    0.032318
    42  H    0.025278
    43  H   -0.032128
    44  H   -0.034227
    45  H   -0.030657
    46  H   -0.027633
    47  H   -0.022849
    48  H   -0.021883
    49  H   -0.002888
    50  H   -0.012233
 Sum of Mulliken atomic charges =   0.00000

 Dipole moment (field-independent basis, Debye):
    X=             -1.7386    Y=              2.5197    Z=              3.8601  Tot=              4.9266
 Quadrupole moment (field-independent basis, Debye-Ang):
   XX=           -196.7554   YY=           -151.5285   ZZ=           -168.3903
   XY=              9.0835   XZ=             13.7860   YZ=             -7.8824

 Normal termination of Gaussian 09 at Sat Sep 10 10:36:29 2022.
