 Gaussian 09, Revision C.01,
 Gaussian 09:  EM64L-G09RevC.01 23-Sep-2011

 ---------------------------------------
 #p b3lyp/cc-pvdz pop=(chelpg,readradii)
 ---------------------------------------

 (Enter /opt/gaussian/l101.exe)
 ---------
 Mol26.log
 ---------
 Charge =  0 Multiplicity = 1

                         Standard orientation:
 ---------------------------------------------------------------------
 Center     Atomic      Atomic             Coordinates (Angstroms)
 Number     Number       Type             X           Y           Z
 ---------------------------------------------------------------------
      1          8           0        1.021770   -1.208210   -0.504690
      2          6           0        1.192520   -0.019170   -0.700480
      3          6           0        2.611160    0.544320   -0.939960
      4          7           0        3.603210   -0.501010   -0.958590
      5          7           0        4.174880   -0.856080   -2.149870
      6          7           0        5.032020   -1.797680   -1.953170
      7          6           0        5.047251   -2.098170   -0.604700
      8          6           0        5.808121   -3.034119    0.117820
      9          6           0        5.608401   -3.098680    1.489650
     10          6           0        4.670911   -2.255160    2.138710
     11          6           0        3.908270   -1.327730    1.440170
     12          6           0        4.116470   -1.265110    0.052570
     13          7           0        0.149670    0.898160   -0.724890
     14          6           0        0.346860    2.343930   -0.877830
     15          6           0        0.116620    3.161540    0.412020
     16          6           0        0.620569    4.611940    0.215700
     17          6           0        2.068979    4.573130    0.778470
     18          8           0        2.292160    3.239170    1.256640
     19          6           0        1.008860    2.703180    1.569420
     20          6           0       -1.196810    0.432339   -0.534000
     21          6           0       -2.194330    0.786779   -1.452200
     22          6           0       -3.511910    0.370559   -1.264100
     23          6           0       -3.873770   -0.423511   -0.161700
     24          6           0       -2.859260   -0.784311    0.744370
     25          6           0       -1.542610   -0.364681    0.566120
     26          6           0       -5.274710   -0.869931    0.034800
     27          6           0       -6.370030   -0.040712   -0.258240
     28          6           0       -7.663920   -0.516942   -0.054110
     29          6           0       -7.829990   -1.811802    0.444400
     30          7           0       -6.806139   -2.628392    0.728140
     31          6           0       -5.571599   -2.158821    0.520680
     32          1           0        2.671720    1.023470   -1.927400
     33          1           0        2.867800    1.300920   -0.180180
     34          1           0        6.524741   -3.677449   -0.394930
     35          1           0        6.178941   -3.812609    2.087190
     36          1           0        4.542471   -2.342170    3.219970
     37          1           0        3.179660   -0.692970    1.945330
     38          1           0        1.362190    2.525820   -1.245870
     39          1           0       -0.330260    2.723559   -1.658850
     40          1           0       -0.949050    3.125809    0.683880
     41          1           0        0.590539    4.921630   -0.840840
     42          1           0       -0.000831    5.322059    0.780510
     43          1           0        2.841829    4.787210    0.025110
     44          1           0        2.190599    5.293590    1.608480
     45          1           0        0.633810    3.104490    2.532660
     46          1           0        1.107320    1.612810    1.666490
     47          1           0       -1.939010    1.372929   -2.336900
     48          1           0       -4.263650    0.637519   -2.009710
     49          1           0       -3.107620   -1.384441    1.621840
     50          1           0       -0.776340   -0.662761    1.280130
     51          1           0       -6.207070    0.976638   -0.621400
     52          1           0       -8.533000    0.108968   -0.266970
     53          1           0       -8.832539   -2.213752    0.624910
     54          1           0       -4.755499   -2.857131    0.734080
 ---------------------------------------------------------------------

 SCF Done:  E(RB3LYP) =  -1352.65029317     A.U. after   15 cycles

 The electronic state is 1-A.
 Alpha  occ. eigenvalues --  -19.16128 -19.12273 -14.40688 -14.38521 -14.38260
 Alpha  occ. eigenvalues --  -14.34312 -14.33141 -10.30511 -10.25208 -10.25109
 Alpha  occ. eigenvalues --  -10.25046 -10.24979 -10.24488 -10.22791 -10.22768
 Alpha  occ. eigenvalues --  -10.22747 -10.21811 -10.21534 -10.21521 -10.21475
 Alpha  occ. eigenvalues --  -10.21319 -10.20958 -10.20824 -10.20678 -10.20635
 Alpha  occ. eigenvalues --  -10.20600 -10.20535 -10.20082 -10.19713 -10.19514
 Alpha  occ. eigenvalues --  -10.19115  -1.08972  -1.05920  -1.05520  -0.96227
 Alpha  occ. eigenvalues --   -0.94719  -0.91997  -0.87426  -0.86044  -0.82602
 Alpha  occ. eigenvalues --   -0.81682  -0.78755  -0.77404  -0.76598  -0.76493
 Alpha  occ. eigenvalues --   -0.76067  -0.74784  -0.73365  -0.71228  -0.66030
 Alpha  occ. eigenvalues --   -0.64521  -0.64496  -0.62334  -0.61964  -0.61794
 Alpha  occ. eigenvalues --   -0.61609  -0.60045  -0.59007  -0.56808  -0.53871
 Alpha  occ. eigenvalues --   -0.53367  -0.52435  -0.52067  -0.52010  -0.51375
 Alpha  occ. eigenvalues --   -0.51179  -0.49629  -0.49418  -0.47664  -0.46758
 Alpha  occ. eigenvalues --   -0.46425  -0.46209  -0.45765  -0.45168  -0.44764
 Alpha  occ. eigenvalues --   -0.44188  -0.43924  -0.43469  -0.43231  -0.42642
 Alpha  occ. eigenvalues --   -0.41592  -0.41162  -0.40898  -0.40539  -0.39670
 Alpha  occ. eigenvalues --   -0.38957  -0.37907  -0.37579  -0.37238  -0.36668
 Alpha  occ. eigenvalues --   -0.36614  -0.36319  -0.36213  -0.35753  -0.35189
 Alpha  occ. eigenvalues --   -0.33977  -0.32597  -0.31009  -0.30654  -0.28874
 Alpha  occ. eigenvalues --   -0.27758  -0.27543  -0.26897  -0.26407  -0.26147
 Alpha  occ. eigenvalues --   -0.26007  -0.24549  -0.23449  -0.23008
 Alpha virt. eigenvalues --   -0.05185  -0.03798  -0.03231  -0.02421  -0.00423
 Alpha virt. eigenvalues --    0.00996   0.01688   0.02547   0.03986   0.04494
 Alpha virt. eigenvalues --    0.05387   0.05459   0.06283   0.07254   0.07757

 Mulliken atomic charges:
              1
     1  O   -0.237574
     2  C    0.127050
     3  C    0.099867
     4  N   -0.224789
     5  N   -0.061206
     6  N   -0.183317
     7  C    0.010830
     8  C    0.044034
     9  C    0.038186
    10  C    0.038604
    11  C    0.033340
    12  C    0.213197
    13  N   -0.280206
    14  C    0.136994
    15  C   -0.118160
    16  C    0.001554
    17  C    0.171949
    18  O   -0.326834
    19  C    0.194532
    20  C    0.082805
    21  C    0.047948
    22  C    0.020852
    23  C    0.036167
    24  C    0.019567
    25  C    0.087511
    26  C   -0.045162
    27  C    0.074175
    28  C   -0.008128
    29  C    0.105834
    30  N   -0.172435
    31  C    0.099580
    32  H    0.060164
    33  H    0.063378
    34  H   -0.023133
    35  H   -0.028249
    36  H   -0.027802
    37  H   -0.032631
    38  H    0.024412
    39  H    0.025550
    40  H   -0.008265
    41  H    0.011837
    42  H    0.017559
    43  H    0.019623
    44  H    0.013869
    45  H    0.012016
    46  H    0.025029
    47  H   -0.028156
    48  H   -0.034801
    49  H   -0.030270
    50  H   -0.025938
    51  H   -0.029849
    52  H   -0.023423
    53  H   -0.002756
    54  H   -0.004929
 Sum of Mulliken atomic charges =   0.00000

 Dipole moment (field-independent basis, Debye):
    X=             -3.3673    Y=              7.4285    Z=              2.1349  Tot=              8.4309
 Quadrupole moment (field-independent basis, Debye-Ang):
   XX=           -189.4362   YY=           -172.5698   ZZ=           -181.7820
   XY=             -8.8452   XZ=             18.6705   YZ=            -10.3379

 Normal termination of Gaussian 09 at Sat Sep 10 11:17:34 2022.
