 Gaussian 09, Revision C.01,
 Gaussian 09:  EM64L-G09RevC.01 23-Sep-2011

 ---------------------------------------
 #p b3lyp/cc-pvdz pop=(chelpg,readradii)
 ---------------------------------------

 (Enter /opt/gaussian/l101.exe)
 ---------
 Mol27.log
 ---------
 Charge =  0 Multiplicity = 1

                         Standard orientation:
 ---------------------------------------------------------------------
 Center     Atomic      Atomic             Coordinates (Angstroms)
 Number     Number       Type             X           Y           Z
 ---------------------------------------------------------------------
      1          8           0        1.217350   -1.372400   -0.424810
      2          6           0        1.336950   -0.262200   -0.906800
      3          6           0        2.725240    0.315530   -1.246210
      4          7           0        3.776010   -0.640230   -1.004560
      5          7           0        4.393300   -1.247910   -2.062220
      6          7           0        5.294480   -2.060350   -1.626410
      7          6           0        5.292070   -2.013190   -0.245510
      8          6           0        6.082610   -2.692020    0.698760
      9          6           0        5.850970   -2.420840    2.040070
     10          6           0        4.853820   -1.496520    2.444960
     11          6           0        4.061370   -0.819340    1.526720
     12          6           0        4.302850   -1.096960    0.171140
     13          7           0        0.248440    0.553060   -1.186940
     14          6           0        0.372580    1.956060   -1.612110
     15          6           0        0.389630    2.931830   -0.458990
     16          6           0       -0.561860    3.882710   -0.198390
     17         16           0       -0.139360    4.782420    1.224760
     18          6           0        1.297040    3.796820    1.364850
     19          7           0        1.440400    2.892770    0.438890
     20          6           0       -1.070800    0.093070   -0.846710
     21          6           0       -2.056850    0.032310   -1.839040
     22          6           0       -3.352570   -0.376400   -1.524280
     23          6           0       -3.695910   -0.751170   -0.212970
     24          6           0       -2.690120   -0.698410    0.770360
     25          6           0       -1.396640   -0.280850    0.462480
     26          6           0       -5.072280   -1.193480    0.120960
     27          6           0       -6.207560   -0.599780   -0.454920
     28          6           0       -7.475100   -1.058830   -0.100960
     29          6           0       -7.575560   -2.099390    0.826290
     30          7           0       -6.512060   -2.690090    1.388070
     31          6           0       -5.303260   -2.242300    1.033120
     32          1           0        2.792210    0.574950   -2.312180
     33          1           0        2.893720    1.225890   -0.650350
     34          1           0        6.845310   -3.401310    0.373810
     35          1           0        6.442720   -2.927930    2.804980
     36          1           0        4.702500   -1.317780    3.511980
     37          1           0        3.286510   -0.120120    1.843020
     38          1           0        1.285060    2.076070   -2.210260
     39          1           0       -0.469710    2.193220   -2.275240
     40          1           0       -1.473580    4.096180   -0.751820
     41          1           0        2.006000    3.956250    2.178550
     42          1           0       -1.802430    0.284720   -2.870930
     43          1           0       -4.097780   -0.442930   -2.319610
     44          1           0       -2.929790   -0.963010    1.802010
     45          1           0       -0.633310   -0.244660    1.239050
     46          1           0       -6.097180    0.230110   -1.156760
     47          1           0       -8.374490   -0.610350   -0.527970
     48          1           0       -8.556300   -2.477750    1.133350
     49          1           0       -4.452190   -2.761770    1.485850
 ---------------------------------------------------------------------

 SCF Done:  E(RB3LYP) =  -1689.27469885     A.U. after   16 cycles

 The electronic state is 1-A.
 Alpha  occ. eigenvalues --  -88.94013 -19.11990 -14.40505 -14.38342 -14.38001
 Alpha  occ. eigenvalues --  -14.36143 -14.34134 -14.33129 -10.30173 -10.27577
 Alpha  occ. eigenvalues --  -10.26029 -10.24996 -10.24766 -10.24495 -10.24219
 Alpha  occ. eigenvalues --  -10.22775 -10.22759 -10.22542 -10.21527 -10.21518
 Alpha  occ. eigenvalues --  -10.21459 -10.20871 -10.20752 -10.20626 -10.20522
 Alpha  occ. eigenvalues --  -10.20515 -10.20452 -10.19885 -10.19576 -10.19383
 Alpha  occ. eigenvalues --  -10.18992  -8.00273  -5.96568  -5.96208  -5.95931
 Alpha  occ. eigenvalues --   -1.08798  -1.05287  -0.99344  -0.95876  -0.94707
 Alpha  occ. eigenvalues --   -0.91791  -0.87337  -0.85881  -0.82533  -0.82125
 Alpha  occ. eigenvalues --   -0.79830  -0.78515  -0.77205  -0.76447  -0.76348
 Alpha  occ. eigenvalues --   -0.74656  -0.73209  -0.71017  -0.65916  -0.64488
 Alpha  occ. eigenvalues --   -0.64349  -0.62653  -0.62035  -0.61775  -0.61553
 Alpha  occ. eigenvalues --   -0.58963  -0.58220  -0.56496  -0.53809  -0.53326
 Alpha  occ. eigenvalues --   -0.52664  -0.51938  -0.51595  -0.51219  -0.49740
 Alpha  occ. eigenvalues --   -0.49334  -0.47895  -0.46670  -0.46191  -0.45753
 Alpha  occ. eigenvalues --   -0.45308  -0.44794  -0.44591  -0.44052  -0.43773
 Alpha  occ. eigenvalues --   -0.43629  -0.43223  -0.43026  -0.42224  -0.41271
 Alpha  occ. eigenvalues --   -0.40871  -0.40521  -0.39477  -0.39242  -0.38427
 Alpha  occ. eigenvalues --   -0.37678  -0.37129  -0.36700  -0.36155  -0.35929
 Alpha  occ. eigenvalues --   -0.35052  -0.32446  -0.31049  -0.30955  -0.30738
 Alpha  occ. eigenvalues --   -0.30228  -0.28788  -0.27764  -0.27369  -0.26663
 Alpha  occ. eigenvalues --   -0.26246  -0.26003  -0.25959  -0.24399  -0.23584
 Alpha  occ. eigenvalues --   -0.22881
 Alpha virt. eigenvalues --   -0.05497  -0.04991  -0.03647  -0.03214  -0.02315
 Alpha virt. eigenvalues --   -0.00285   0.00119   0.00476   0.01332   0.02331
 Alpha virt. eigenvalues --    0.04005   0.04352   0.05680   0.05804   0.06568

 Mulliken atomic charges:
              1
     1  O   -0.236993
     2  C    0.139458
     3  C    0.110917
     4  N   -0.225654
     5  N   -0.061636
     6  N   -0.184642
     7  C    0.010826
     8  C    0.043664
     9  C    0.036920
    10  C    0.039181
    11  C    0.028835
    12  C    0.211941
    13  N   -0.287681
    14  C    0.161651
    15  C    0.066201
    16  C   -0.128754
    17  S    0.155259
    18  C   -0.001979
    19  N   -0.183682
    20  C    0.078334
    21  C    0.057435
    22  C    0.021206
    23  C    0.036374
    24  C    0.018222
    25  C    0.097891
    26  C   -0.045216
    27  C    0.074365
    28  C   -0.008209
    29  C    0.105924
    30  N   -0.172509
    31  C    0.099898
    32  H    0.056379
    33  H    0.058731
    34  H   -0.023778
    35  H   -0.029105
    36  H   -0.028437
    37  H   -0.029278
    38  H    0.047671
    39  H    0.013981
    40  H    0.019683
    41  H    0.039122
    42  H   -0.029910
    43  H   -0.034440
    44  H   -0.030111
    45  H   -0.026650
    46  H   -0.030406
    47  H   -0.023556
    48  H   -0.002799
    49  H   -0.004640
 Sum of Mulliken atomic charges =   0.00000

 Dipole moment (field-independent basis, Debye):
    X=             -3.8155    Y=              7.7830    Z=              0.8661  Tot=              8.7111
 Quadrupole moment (field-independent basis, Debye-Ang):
   XX=           -191.1623   YY=           -184.8572   ZZ=           -178.0876
   XY=             -1.3260   XZ=             27.2598   YZ=             -5.3014

 Normal termination of Gaussian 09 at Sat Sep 10 11:30:11 2022.
