 Gaussian 09, Revision C.01,
 Gaussian 09:  EM64L-G09RevC.01 23-Sep-2011

 ---------------------------------------
 #p b3lyp/cc-pvdz pop=(chelpg,readradii)
 ---------------------------------------

 (Enter /opt/gaussian/l101.exe)
 ---------
 Mol22.log
 ---------
 Charge =  0 Multiplicity = 1

                         Standard orientation:
 ---------------------------------------------------------------------
 Center     Atomic      Atomic             Coordinates (Angstroms)
 Number     Number       Type             X           Y           Z
 ---------------------------------------------------------------------
      1          6           0        1.709639    5.139451   -0.054130
      2          6           0        0.415419    4.598960    0.572130
      3          6           0        0.198399    5.197560    1.968120
      4          6           0        0.388240    3.060320    0.641920
      5          6           0        0.410350    2.361340   -0.724460
      6          7           0        0.251720    0.899560   -0.628880
      7          6           0        1.313480    0.014820   -0.571920
      8          8           0        1.176851   -1.182210   -0.389880
      9          6           0        2.718350    0.625841   -0.753360
     10          7           0        3.748201   -0.381029   -0.810230
     11          7           0        4.446821   -0.543499   -1.977030
     12          7           0        5.346211   -1.451248   -1.817860
     13          6           0        5.268601   -1.919478   -0.520200
     14          6           0        6.032121   -2.891848    0.149680
     15          6           0        5.725631   -3.140898    1.479890
     16          6           0        4.677841   -2.446649    2.137200
     17          6           0        3.908941   -1.488569    1.488950
     18          6           0        4.228691   -1.234619    0.144880
     19          6           0       -1.083010    0.390030   -0.464720
     20          6           0       -1.441109   -0.370440    0.656180
     21          6           0       -2.744869   -0.841761    0.796730
     22          6           0       -3.731859   -0.567431   -0.167850
     23          6           0       -3.358000    0.193899   -1.289420
     24          6           0       -2.051790    0.658670   -1.440020
     25          6           0       -5.118639   -1.069941   -0.009580
     26          6           0       -5.394609   -2.347261    0.505850
     27          6           0       -6.719079   -2.763482    0.628910
     28          6           0       -7.735709   -1.891872    0.229200
     29          7           0       -7.504639   -0.665762   -0.259830
     30          6           0       -6.228870   -0.280141   -0.366950
     31          1           0        2.592639    4.820381    0.527820
     32          1           0        1.850649    4.799631   -1.092750
     33          1           0        1.706749    6.241231   -0.071360
     34          1           0       -0.431261    4.918080   -0.066640
     35          1           0        1.015369    4.908860    2.652390
     36          1           0        0.170419    6.298440    1.929850
     37          1           0       -0.748511    4.851260    2.413220
     38          1           0        1.241190    2.706400    1.251270
     39          1           0       -0.524190    2.740860    1.174030
     40          1           0       -0.410080    2.749670   -1.346710
     41          1           0        1.334020    2.586790   -1.271260
     42          1           0        2.793040    1.172321   -1.703220
     43          1           0        2.930390    1.336321    0.063390
     44          1           0        6.832371   -3.420478   -0.370380
     45          1           0        6.294941   -3.888238    2.036310
     46          1           0        4.464371   -2.680409    3.182670
     47          1           0        3.087961   -0.979439    1.993770
     48          1           0       -0.694569   -0.598030    1.416110
     49          1           0       -3.007129   -1.413971    1.689100
     50          1           0       -4.087550    0.393379   -2.076640
     51          1           0       -1.778060    1.215680   -2.338340
     52          1           0       -4.576569   -3.015781    0.783680
     53          1           0       -6.962159   -3.754382    1.017910
     54          1           0       -8.786319   -2.191452    0.304540
     55          1           0       -6.069670    0.735389   -0.745060
 ---------------------------------------------------------------------

 SCF Done:  E(RB3LYP) =  -1278.64792003     A.U. after   15 cycles

 The electronic state is 1-A.
 Alpha  occ. eigenvalues --  -19.12264 -14.41097 -14.38917 -14.38101 -14.34697
 Alpha  occ. eigenvalues --  -14.33129 -10.30555 -10.25871 -10.24721 -10.24329
 Alpha  occ. eigenvalues --  -10.23101 -10.22798 -10.22722 -10.21469 -10.21433
 Alpha  occ. eigenvalues --  -10.21385 -10.21022 -10.20982 -10.20817 -10.20676
 Alpha  occ. eigenvalues --  -10.20587 -10.20543 -10.20526 -10.20501 -10.20338
 Alpha  occ. eigenvalues --  -10.19990 -10.19809 -10.19485 -10.19408 -10.19169
 Alpha  occ. eigenvalues --   -1.09334  -1.05534  -0.96081  -0.94695  -0.92406
 Alpha  occ. eigenvalues --   -0.87347  -0.86358  -0.83065  -0.81892  -0.78791
 Alpha  occ. eigenvalues --   -0.77737  -0.76862  -0.76459  -0.75720  -0.74826
 Alpha  occ. eigenvalues --   -0.72961  -0.69839  -0.66412  -0.65945  -0.64825
 Alpha  occ. eigenvalues --   -0.64301  -0.62415  -0.61886  -0.61530  -0.59131
 Alpha  occ. eigenvalues --   -0.57887  -0.56850  -0.53721  -0.53143  -0.52452
 Alpha  occ. eigenvalues --   -0.52369  -0.51337  -0.49949  -0.49431  -0.48855
 Alpha  occ. eigenvalues --   -0.47660  -0.46962  -0.46588  -0.45880  -0.45408
 Alpha  occ. eigenvalues --   -0.45026  -0.44838  -0.44462  -0.44142  -0.43560
 Alpha  occ. eigenvalues --   -0.43487  -0.42549  -0.41549  -0.40819  -0.40577
 Alpha  occ. eigenvalues --   -0.40181  -0.39771  -0.38970  -0.38311  -0.37862
 Alpha  occ. eigenvalues --   -0.37552  -0.37220  -0.36793  -0.36615  -0.35996
 Alpha  occ. eigenvalues --   -0.35544  -0.35056  -0.34435  -0.34039  -0.32965
 Alpha  occ. eigenvalues --   -0.31101  -0.30694  -0.28731  -0.27647  -0.26757
 Alpha  occ. eigenvalues --   -0.26515  -0.26476  -0.25994  -0.24873  -0.23564
 Alpha  occ. eigenvalues --   -0.23229
 Alpha virt. eigenvalues --   -0.05092  -0.04123  -0.03156  -0.02351  -0.00438
 Alpha virt. eigenvalues --    0.00577   0.01672   0.02898   0.03734   0.04650
 Alpha virt. eigenvalues --    0.05193   0.05877   0.06452   0.06888   0.07729

 Mulliken atomic charges:
              1
     1  C    0.018822
     2  C   -0.144781
     3  C    0.032769
     4  C    0.035070
     5  C    0.092436
     6  N   -0.280202
     7  C    0.135302
     8  O   -0.243982
     9  C    0.112583
    10  N   -0.227126
    11  N   -0.060674
    12  N   -0.181726
    13  C    0.010410
    14  C    0.044697
    15  C    0.037680
    16  C    0.038849
    17  C    0.033506
    18  C    0.213761
    19  C    0.078195
    20  C    0.093816
    21  C    0.017496
    22  C    0.034978
    23  C    0.023017
    24  C    0.057753
    25  C   -0.046318
    26  C    0.075821
    27  C   -0.008104
    28  C    0.105393
    29  N   -0.173501
    30  C    0.099361
    31  H    0.016887
    32  H    0.016923
    33  H    0.019174
    34  H   -0.006600
    35  H    0.015513
    36  H    0.014667
    37  H    0.015881
    38  H   -0.001697
    39  H    0.014351
    40  H    0.019785
    41  H    0.027157
    42  H    0.064824
    43  H    0.050024
    44  H   -0.022367
    45  H   -0.027430
    46  H   -0.026361
    47  H   -0.033620
    48  H   -0.030752
    49  H   -0.034077
    50  H   -0.031011
    51  H   -0.026863
    52  H   -0.022800
    53  H   -0.021935
    54  H   -0.002987
    55  H   -0.011988
 Sum of Mulliken atomic charges =   0.00000

 Dipole moment (field-independent basis, Debye):
    X=             -1.5177    Y=              3.2436    Z=              3.4533  Tot=              4.9749
 Quadrupole moment (field-independent basis, Debye-Ang):
   XX=           -203.6297   YY=           -161.9543   ZZ=           -177.0430
   XY=             13.0233   XZ=             12.3722   YZ=            -11.7338

 Normal termination of Gaussian 09 at Sat Sep 10 10:25:49 2022.
