 Gaussian 09, Revision C.01,
 Gaussian 09:  EM64L-G09RevC.01 23-Sep-2011

 ---------------------------------------
 #p b3lyp/cc-pvdz pop=(chelpg,readradii)
 ---------------------------------------

 (Enter /opt/gaussian/l101.exe)
 ---------
 Mol31.log
 ---------
 Charge =  0 Multiplicity = 1

                         Standard orientation:
 ---------------------------------------------------------------------
 Center     Atomic      Atomic             Coordinates (Angstroms)
 Number     Number       Type             X           Y           Z
 ---------------------------------------------------------------------
      1          9           0       -4.072151    4.579679   -1.172659
      2          6           0       -2.897201    4.063570   -0.763559
      3          6           0       -2.020601    4.883460   -0.060739
      4          6           0       -0.813291    4.321930    0.360561
      5          6           0       -0.485761    2.992840    0.090601
      6          6           0       -1.389841    2.191710   -0.622659
      7          6           0       -2.610711    2.731190   -1.049739
      8          6           0       -1.047250    0.754030   -0.988589
      9          7           0       -0.396620   -0.021990    0.084791
     10          6           0       -1.107250   -0.557200    1.143251
     11          8           0       -0.584300   -1.186000    2.051691
     12          6           0       -2.638070   -0.379240    1.142091
     13          7           0       -3.300280   -1.346821    0.284391
     14          7           0       -3.992490   -0.934141   -0.822399
     15          7           0       -4.513640   -1.956771   -1.411789
     16          6           0       -4.177899   -3.089601   -0.696999
     17          6           0       -4.499609   -4.442431   -0.911979
     18          6           0       -4.003809   -5.366111   -0.003109
     19          6           0       -3.199869   -4.967271    1.096841
     20          6           0       -2.868629   -3.637970    1.326711
     21          6           0       -3.383790   -2.708831    0.405811
     22          6           0        1.021840   -0.250390    0.010261
     23          6           0        1.583860   -0.779940   -1.159049
     24          6           0        2.960580   -0.980609   -1.254589
     25          6           0        3.816460   -0.675729   -0.181629
     26          6           0        3.235620   -0.161139    0.992281
     27          6           0        1.861510    0.049251    1.091781
     28          6           0        5.280200   -0.894589   -0.282419
     29          6           0        5.993080   -0.638299   -1.465279
     30          6           0        7.368010   -0.864328   -1.498559
     31          6           0        7.997110   -1.337478   -0.343899
     32          7           0        7.343790   -1.597088    0.796951
     33          6           0        6.024580   -1.380319    0.810681
     34         17           0        0.322499    5.322950    1.251781
     35          1           0       -2.279761    5.920020    0.150431
     36          1           0        0.467769    2.592140    0.432191
     37          1           0       -3.343261    2.126469   -1.587429
     38          1           0       -1.951890    0.240070   -1.338389
     39          1           0       -0.348900    0.765940   -1.836249
     40          1           0       -2.955460   -0.536380    2.181971
     41          1           0       -2.967140    0.613550    0.813971
     42          1           0       -5.114609   -4.737681   -1.763259
     43          1           0       -4.229569   -6.426401   -0.133439
     44          1           0       -2.824509   -5.732570    1.779711
     45          1           0       -2.228059   -3.328700    2.153021
     46          1           0        0.940560   -1.060840   -1.995339
     47          1           0        3.370040   -1.417909   -2.167389
     48          1           0        3.872580    0.106761    1.837351
     49          1           0        1.437970    0.447490    2.012721
     50          1           0        5.476850   -0.243089   -2.343239
     51          1           0        7.948080   -0.665998   -2.402139
     52          1           0        9.077330   -1.516888   -0.333139
     53          1           0        5.512320   -1.626609    1.746751
 ---------------------------------------------------------------------

 SCF Done:  E(RB3LYP) =  -1911.31489667     A.U. after   16 cycles

 The electronic state is 1-A.
 Alpha  occ. eigenvalues -- -101.55660 -24.72289 -19.13212 -14.42604 -14.40469
 Alpha  occ. eigenvalues --  -14.39102 -14.36135 -14.33223 -10.31243 -10.29434
 Alpha  occ. eigenvalues --  -10.27159 -10.26017 -10.25459 -10.24845 -10.24183
 Alpha  occ. eigenvalues --  -10.23252 -10.22893 -10.22842 -10.22246 -10.21979
 Alpha  occ. eigenvalues --  -10.21717 -10.21649 -10.21605 -10.21559 -10.21510
 Alpha  occ. eigenvalues --  -10.21191 -10.21027 -10.20983 -10.20827 -10.20819
 Alpha  occ. eigenvalues --  -10.20813 -10.20778 -10.20689 -10.20368  -9.47476
 Alpha  occ. eigenvalues --   -7.23741  -7.22763  -7.22720  -1.24056  -1.10656
 Alpha  occ. eigenvalues --   -1.06268  -0.96848  -0.94804  -0.93587  -0.91009
 Alpha  occ. eigenvalues --   -0.87701  -0.87354  -0.85795  -0.82260  -0.79770
 Alpha  occ. eigenvalues --   -0.78939  -0.78444  -0.77633  -0.76757  -0.75783
 Alpha  occ. eigenvalues --   -0.75553  -0.74130  -0.72093  -0.66381  -0.65794
 Alpha  occ. eigenvalues --   -0.64716  -0.63748  -0.63407  -0.62845  -0.62053
 Alpha  occ. eigenvalues --   -0.61416  -0.60097  -0.57661  -0.55359  -0.54546
 Alpha  occ. eigenvalues --   -0.53946  -0.53575  -0.52728  -0.51888  -0.51568
 Alpha  occ. eigenvalues --   -0.50983  -0.49929  -0.49641  -0.48263  -0.47995
 Alpha  occ. eigenvalues --   -0.47746  -0.47497  -0.46141  -0.45991  -0.45762
 Alpha  occ. eigenvalues --   -0.45120  -0.45027  -0.44828  -0.43892  -0.43491
 Alpha  occ. eigenvalues --   -0.43034  -0.42892  -0.42179  -0.40987  -0.40694
 Alpha  occ. eigenvalues --   -0.40617  -0.40330  -0.39958  -0.39190  -0.38417
 Alpha  occ. eigenvalues --   -0.38221  -0.37775  -0.37111  -0.36940  -0.36470
 Alpha  occ. eigenvalues --   -0.36239  -0.34432  -0.34037  -0.32578  -0.32533
 Alpha  occ. eigenvalues --   -0.31218  -0.29124  -0.28478  -0.27800  -0.27595
 Alpha  occ. eigenvalues --   -0.26975  -0.26859  -0.26256  -0.26110  -0.26038
 Alpha  occ. eigenvalues --   -0.24384  -0.23636
 Alpha virt. eigenvalues --   -0.05575  -0.05410  -0.04033  -0.03299  -0.03223
 Alpha virt. eigenvalues --   -0.02472  -0.01642  -0.00266   0.00898   0.01808
 Alpha virt. eigenvalues --    0.02389   0.05346   0.06134   0.06424   0.07416

 Mulliken atomic charges:
              1
     1  F   -0.157663
     2  C    0.148732
     3  C    0.102766
     4  C   -0.135946
     5  C    0.133601
     6  C   -0.095099
     7  C    0.014393
     8  C    0.156224
     9  N   -0.279825
    10  C    0.134456
    11  O   -0.254188
    12  C    0.167348
    13  N   -0.243262
    14  N   -0.069707
    15  N   -0.176503
    16  C    0.010183
    17  C    0.043931
    18  C    0.040006
    19  C    0.044174
    20  C    0.030380
    21  C    0.184772
    22  C    0.074172
    23  C    0.048064
    24  C    0.023351
    25  C    0.036097
    26  C    0.018654
    27  C    0.087953
    28  C   -0.045569
    29  C    0.074959
    30  C   -0.007835
    31  C    0.106103
    32  N   -0.172540
    33  C    0.099793
    34  Cl  -0.073519
    35  H   -0.001692
    36  H   -0.027680
    37  H   -0.002370
    38  H    0.038945
    39  H    0.052760
    40  H    0.046574
    41  H    0.055964
    42  H   -0.019546
    43  H   -0.022906
    44  H   -0.018507
    45  H   -0.007348
    46  H   -0.022269
    47  H   -0.032780
    48  H   -0.027818
    49  H   -0.021170
    50  H   -0.027575
    51  H   -0.022327
    52  H   -0.002294
    53  H   -0.006418
 Sum of Mulliken atomic charges =   0.00000

 Dipole moment (field-independent basis, Debye):
    X=              0.7309    Y=             -0.2343    Z=             -1.5609  Tot=              1.7394
 Quadrupole moment (field-independent basis, Debye-Ang):
   XX=           -214.6516   YY=           -198.0566   ZZ=           -198.5787
   XY=              8.6506   XZ=            -21.6627   YZ=              2.9850

 Normal termination of Gaussian 09 at Sat Sep 10 12:15:34 2022.
