 Gaussian 09, Revision C.01,
 Gaussian 09:  EM64L-G09RevC.01 23-Sep-2011

 ---------------------------------------
 #p b3lyp/cc-pvdz pop=(chelpg,readradii)
 ---------------------------------------

 (Enter /opt/gaussian/l101.exe)
 ---------
 Mol37.log
 ---------
 Charge =  0 Multiplicity = 1

                         Standard orientation:
 ---------------------------------------------------------------------
 Center     Atomic      Atomic             Coordinates (Angstroms)
 Number     Number       Type             X           Y           Z
 ---------------------------------------------------------------------
      1          6           0       -4.447521    0.117901    0.312700
      2          6           0       -5.096511    1.209971   -0.302690
      3          6           0       -5.087911   -1.115399    0.526130
      4          6           0       -6.435721    1.105311   -0.720460
      5          6           0       -6.411431   -1.195979    0.112120
      6          6           0       -7.079281   -0.104078   -0.500880
      7          7           0       -3.193721    0.604101    0.581150
      8          7           0       -4.210731    2.267111   -0.376330
      9          7           0       -3.092271    1.899351    0.150480
     10          6           0       -2.065691   -0.015749    1.256580
     11          6           0       -1.470411   -1.153799    0.412490
     12          7           0       -0.293951   -0.921529   -0.251720
     13          8           0       -2.071721   -2.223009    0.336550
     14          6           0        0.209899   -1.981569   -1.155010
     15          6           0        3.492089   -3.695329   -0.239560
     16          6           0        3.081689   -4.670289    0.669480
     17          6           0        2.576109   -2.823209   -0.832820
     18          6           0        1.721199   -4.765729    0.980900
     19          6           0        1.214879   -2.921629   -0.515090
     20          6           0        0.791789   -3.903989    0.396190
     21         17           0        5.199459   -3.557500   -0.651050
     22          6           0        2.357859    1.492761    0.808220
     23          6           0        2.061179    2.627591    0.028380
     24          6           0        1.578419    0.339191    0.733190
     25          6           0        0.951629    2.556961   -0.836000
     26          6           0        0.481319    0.285341   -0.137360
     27          6           0        0.177079    1.401711   -0.926130
     28          6           0        2.876799    3.846771    0.109720
     29          6           0        3.738489    4.239841    1.131460
     30          6           0        2.979499    4.909031   -0.836200
     31          7           0        4.265049    5.431921    0.754460
     32          7           0        3.821279    5.861091   -0.442730
     33          1           0       -4.555801   -1.963029    0.955710
     34          1           0       -6.934531    1.950991   -1.196200
     35          1           0       -6.953911   -2.133709    0.252300
     36          1           0       -8.119301   -0.227358   -0.810050
     37          1           0       -1.356601    0.789231    1.474360
     38          1           0       -2.411701   -0.467939    2.197960
     39          1           0       -0.670231   -2.547569   -1.487120
     40          1           0        0.659849   -1.479679   -2.022600
     41          1           0        3.813059   -5.342589    1.118960
     42          1           0        2.928129   -2.071859   -1.541400
     43          1           0        1.386539   -5.530519    1.685430
     44          1           0       -0.269641   -3.982909    0.637090
     45          1           0        3.222759    1.503801    1.474560
     46          1           0        1.822089   -0.530489    1.345290
     47          1           0        0.673259    3.426501   -1.433550
     48          1           0       -0.689391    1.374291   -1.588100
     49          1           0        3.991179    3.780171    2.082890
     50          1           0        2.482699    5.003271   -1.799700
     51          1           0        4.922260    6.002841    1.270300
 ---------------------------------------------------------------------

 SCF Done:  E(RB3LYP) =  -1789.99860650     A.U. after   15 cycles

 The electronic state is 1-A.
 Alpha  occ. eigenvalues -- -101.54663 -19.12640 -14.41618 -14.41517 -14.39178
 Alpha  occ. eigenvalues --  -14.38183 -14.35414 -14.34980 -10.30580 -10.25621
 Alpha  occ. eigenvalues --  -10.25313 -10.24107 -10.23937 -10.23641 -10.23184
 Alpha  occ. eigenvalues --  -10.21912 -10.21444 -10.21310 -10.21225 -10.20918
 Alpha  occ. eigenvalues --  -10.20909 -10.20880 -10.20776 -10.20673 -10.20662
 Alpha  occ. eigenvalues --  -10.20409 -10.20100 -10.20015 -10.19997 -10.19911
 Alpha  occ. eigenvalues --  -10.19908 -10.19511  -9.46476  -7.22732  -7.21766
 Alpha  occ. eigenvalues --   -7.21729  -1.09508  -1.05738  -1.05583  -0.96018
 Alpha  occ. eigenvalues --   -0.92450  -0.89609  -0.87203  -0.86407  -0.84430
 Alpha  occ. eigenvalues --   -0.82937  -0.80877  -0.78884  -0.77589  -0.76723
 Alpha  occ. eigenvalues --   -0.76433  -0.75176  -0.74624  -0.73946  -0.70267
 Alpha  occ. eigenvalues --   -0.65774  -0.64854  -0.63456  -0.62390  -0.62135
 Alpha  occ. eigenvalues --   -0.61018  -0.60877  -0.59397  -0.58925  -0.56778
 Alpha  occ. eigenvalues --   -0.55574  -0.54304  -0.52738  -0.52411  -0.52264
 Alpha  occ. eigenvalues --   -0.49838  -0.48803  -0.48408  -0.48269  -0.47200
 Alpha  occ. eigenvalues --   -0.46634  -0.46523  -0.45767  -0.45049  -0.44861
 Alpha  occ. eigenvalues --   -0.44674  -0.44325  -0.43934  -0.43458  -0.43331
 Alpha  occ. eigenvalues --   -0.42475  -0.41903  -0.41126  -0.40784  -0.39958
 Alpha  occ. eigenvalues --   -0.39480  -0.38493  -0.38141  -0.37580  -0.37089
 Alpha  occ. eigenvalues --   -0.36359  -0.36106  -0.35934  -0.35579  -0.33548
 Alpha  occ. eigenvalues --   -0.33231  -0.31577  -0.31527  -0.30703  -0.29823
 Alpha  occ. eigenvalues --   -0.27895  -0.27308  -0.27055  -0.26773  -0.26651
 Alpha  occ. eigenvalues --   -0.26291  -0.25131  -0.25074  -0.23534  -0.22914
 Alpha virt. eigenvalues --   -0.04487  -0.04049  -0.03200  -0.02592  -0.02131
 Alpha virt. eigenvalues --   -0.00493   0.00843   0.01000   0.02601   0.03443
 Alpha virt. eigenvalues --    0.04447   0.05653   0.06414   0.06781   0.07528

 Mulliken atomic charges:
              1
     1  C    0.184964
     2  C    0.010627
     3  C    0.036742
     4  C    0.042291
     5  C    0.041866
     6  C    0.038851
     7  N   -0.248441
     8  N   -0.182112
     9  N   -0.063606
    10  C    0.186198
    11  C    0.140230
    12  N   -0.239033
    13  O   -0.282505
    14  C    0.193990
    15  C   -0.140468
    16  C    0.114296
    17  C    0.121439
    18  C    0.046785
    19  C   -0.088121
    20  C    0.033897
    21  Cl  -0.091589
    22  C    0.002953
    23  C    0.069342
    24  C    0.086994
    25  C    0.004799
    26  C   -0.034605
    27  C    0.114524
    28  C   -0.064248
    29  C    0.093300
    30  C    0.094429
    31  N    0.004801
    32  N   -0.167957
    33  H   -0.015981
    34  H   -0.023087
    35  H   -0.023756
    36  H   -0.026961
    37  H    0.055020
    38  H    0.044028
    39  H    0.045030
    40  H    0.010496
    41  H   -0.020669
    42  H   -0.029101
    43  H   -0.017784
    44  H   -0.018544
    45  H   -0.040226
    46  H   -0.030196
    47  H   -0.027755
    48  H   -0.032363
    49  H    0.000497
    50  H   -0.012468
    51  H    0.103185
 Sum of Mulliken atomic charges =   0.00000

 Dipole moment (field-independent basis, Debye):
    X=              2.1227    Y=             -0.9482    Z=              3.0302  Tot=              3.8193
 Quadrupole moment (field-independent basis, Debye-Ang):
   XX=           -184.4139   YY=           -196.3578   ZZ=           -180.2553
   XY=             18.5395   XZ=             14.0650   YZ=              5.3898

 Normal termination of Gaussian 09 at Sat Sep 10 13:45:49 2022.
