 Gaussian 09, Revision C.01,
 Gaussian 09:  EM64L-G09RevC.01 23-Sep-2011

 ---------------------------------------
 #p b3lyp/cc-pvdz pop=(chelpg,readradii)
 ---------------------------------------

 (Enter /opt/gaussian/l101.exe)
 ---------
 Mol35.log
 ---------
 Charge =  0 Multiplicity = 1

                         Standard orientation:
 ---------------------------------------------------------------------
 Center     Atomic      Atomic             Coordinates (Angstroms)
 Number     Number       Type             X           Y           Z
 ---------------------------------------------------------------------
      1         17           0       -3.440470    5.827730   -0.551809
      2          6           0       -2.608450    4.410200    0.073031
      3          6           0       -2.585000    4.180040    1.451311
      4          6           0       -1.922400    3.047740    1.926431
      5          6           0       -1.293520    2.161740    1.044571
      6          6           0       -1.321900    2.399890   -0.335289
      7          6           0       -1.990110    3.535190   -0.819059
      8          6           0       -0.636200    1.482800   -1.343289
      9          7           0       -0.177220    0.186370   -0.835289
     10          6           0       -1.064620   -0.864070   -0.629479
     11          8           0       -0.746590   -1.925860   -0.128309
     12          6           0       -2.519970   -0.612960   -1.077599
     13          7           0       -3.346480   -1.779120   -0.900909
     14          7           0       -3.786270   -2.457130   -2.006009
     15          7           0       -4.517210   -3.451620   -1.637999
     16          6           0       -4.580170   -3.459760   -0.257599
     17          6           0       -5.252760   -4.323940    0.624351
     18          6           0       -5.136620   -4.067870    1.983301
     19          6           0       -4.365540   -2.979380    2.465351
     20          6           0       -3.690820   -2.118540    1.608991
     21          6           0       -3.816390   -2.379700    0.234611
     22          6           0        1.221180    0.030630   -0.542649
     23          6           0        1.947010    1.100540    0.003281
     24          6           0        3.315200    0.979420    0.241891
     25          6           0        4.010540   -0.210400   -0.040659
     26          6           0        3.271260   -1.270260   -0.604359
     27          6           0        1.904310   -1.157640   -0.845589
     28          6           0        5.455600   -0.330260    0.266381
     29          6           0        6.028520    0.343340    1.327361
     30          6           0        7.417140    0.280480    1.631111
     31          6           0        8.216820   -0.489490    0.835161
     32          7           0        7.668600   -1.170250   -0.209829
     33          6           0        6.308780   -1.184020   -0.575399
     34          8           0        5.963180   -1.877220   -1.528819
     35          1           0       -3.079030    4.874470    2.130991
     36          1           0       -1.895450    2.853190    3.000751
     37          1           0       -0.778430    1.282150    1.433901
     38          1           0       -2.032560    3.741190   -1.890539
     39          1           0       -1.308320    1.326750   -2.201289
     40          1           0        0.245800    1.993660   -1.755259
     41          1           0       -2.950140    0.241660   -0.531649
     42          1           0       -2.559180   -0.381450   -2.151439
     43          1           0       -5.839910   -5.158990    0.239351
     44          1           0       -5.642920   -4.715660    2.701821
     45          1           0       -4.295330   -2.818930    3.543551
     46          1           0       -3.083740   -1.296370    1.988801
     47          1           0        1.451080    2.041080    0.247001
     48          1           0        3.851170    1.843210    0.639901
     49          1           0        3.783270   -2.191840   -0.871789
     50          1           0        1.365350   -2.002200   -1.268609
     51          1           0        5.386180    0.941350    1.977971
     52          1           0        7.834930    0.821800    2.478281
     53          1           0        9.291150   -0.606570    0.982961
     54          1           0        8.250020   -1.755440   -0.803589
 ---------------------------------------------------------------------

 SCF Done:  E(RB3LYP) =  -1887.31489948     A.U. after   15 cycles

 The electronic state is 1-A.
 Alpha  occ. eigenvalues -- -101.55565 -19.12678 -19.10548 -14.40949 -14.39705
 Alpha  occ. eigenvalues --  -14.38774 -14.38768 -14.34546 -10.30791 -10.29453
 Alpha  occ. eigenvalues --  -10.26812 -10.25888 -10.25854 -10.25690 -10.24048
 Alpha  occ. eigenvalues --  -10.23073 -10.22960 -10.22074 -10.22058 -10.21898
 Alpha  occ. eigenvalues --  -10.21845 -10.21561 -10.21287 -10.20877 -10.20606
 Alpha  occ. eigenvalues --  -10.20496 -10.20224 -10.20026 -10.19922 -10.19867
 Alpha  occ. eigenvalues --  -10.19676 -10.19273 -10.19151 -10.18903  -9.47381
 Alpha  occ. eigenvalues --   -7.23641  -7.22670  -7.22629  -1.09216  -1.05895
 Alpha  occ. eigenvalues --   -1.04233  -0.96675  -0.96398  -0.92295  -0.90755
 Alpha  occ. eigenvalues --   -0.86716  -0.86224  -0.85520  -0.82937  -0.79800
 Alpha  occ. eigenvalues --   -0.78550  -0.77525  -0.76721  -0.75712  -0.75258
 Alpha  occ. eigenvalues --   -0.74827  -0.73507  -0.71669  -0.67009  -0.65188
 Alpha  occ. eigenvalues --   -0.64697  -0.63402  -0.63255  -0.62174  -0.61638
 Alpha  occ. eigenvalues --   -0.60731  -0.59131  -0.56767  -0.55926  -0.54166
 Alpha  occ. eigenvalues --   -0.53043  -0.52503  -0.52266  -0.52037  -0.51343
 Alpha  occ. eigenvalues --   -0.49807  -0.49298  -0.48569  -0.47772  -0.47442
 Alpha  occ. eigenvalues --   -0.46501  -0.46278  -0.45670  -0.45392  -0.44718
 Alpha  occ. eigenvalues --   -0.44624  -0.44475  -0.44188  -0.43792  -0.43405
 Alpha  occ. eigenvalues --   -0.43244  -0.42214  -0.41807  -0.40892  -0.40527
 Alpha  occ. eigenvalues --   -0.39856  -0.38981  -0.38224  -0.37699  -0.37636
 Alpha  occ. eigenvalues --   -0.37372  -0.36796  -0.36488  -0.35413  -0.35276
 Alpha  occ. eigenvalues --   -0.34891  -0.34418  -0.32852  -0.32612  -0.32286
 Alpha  occ. eigenvalues --   -0.30954  -0.29283  -0.27975  -0.27369  -0.26518
 Alpha  occ. eigenvalues --   -0.26317  -0.26097  -0.25385  -0.24755  -0.24552
 Alpha  occ. eigenvalues --   -0.23268  -0.21207
 Alpha virt. eigenvalues --   -0.06274  -0.04119  -0.03970  -0.03520  -0.01738
 Alpha virt. eigenvalues --   -0.01118   0.00249   0.00930   0.01498   0.02268
 Alpha virt. eigenvalues --    0.03557   0.03738   0.04313   0.05690   0.06400

 Mulliken atomic charges:
              1
     1  Cl  -0.079245
     2  C   -0.143069
     3  C    0.118532
     4  C    0.052013
     5  C    0.023220
     6  C   -0.088599
     7  C    0.119225
     8  C    0.152837
     9  N   -0.283199
    10  C    0.127596
    11  O   -0.234641
    12  C    0.122485
    13  N   -0.227904
    14  N   -0.060101
    15  N   -0.181956
    16  C    0.011215
    17  C    0.044790
    18  C    0.037849
    19  C    0.039337
    20  C    0.031882
    21  C    0.213540
    22  C    0.101180
    23  C    0.017760
    24  C    0.007967
    25  C    0.047059
    26  C    0.044665
    27  C    0.077091
    28  C   -0.085376
    29  C    0.089857
    30  C   -0.041573
    31  C    0.136055
    32  N   -0.057280
    33  C    0.133142
    34  O   -0.264944
    35  H   -0.016135
    36  H   -0.013585
    37  H   -0.014411
    38  H   -0.031912
    39  H    0.041905
    40  H    0.054398
    41  H    0.057074
    42  H    0.062373
    43  H   -0.022327
    44  H   -0.027586
    45  H   -0.026599
    46  H   -0.032493
    47  H   -0.028405
    48  H   -0.040793
    49  H   -0.019933
    50  H   -0.014973
    51  H   -0.020799
    52  H   -0.021091
    53  H    0.017784
    54  H    0.096095
 Sum of Mulliken atomic charges =   0.00000

 Dipole moment (field-independent basis, Debye):
    X=              5.2773    Y=              4.9597    Z=              4.4757  Tot=              8.5136
 Quadrupole moment (field-independent basis, Debye-Ang):
   XX=           -162.7599   YY=           -216.1887   ZZ=           -198.2056
   XY=             -4.1060   XZ=             -0.6183   YZ=             -8.5748

 Normal termination of Gaussian 09 at Sat Sep 10 13:18:29 2022.
