 Gaussian 09, Revision C.01,
 Gaussian 09:  EM64L-G09RevC.01 23-Sep-2011

 ---------------------------------------
 #p b3lyp/cc-pvdz pop=(chelpg,readradii)
 ---------------------------------------

 (Enter /opt/gaussian/l101.exe)
 ---------
 Mol39.log
 ---------
 Charge =  0 Multiplicity = 1

                         Standard orientation:
 ---------------------------------------------------------------------
 Center     Atomic      Atomic             Coordinates (Angstroms)
 Number     Number       Type             X           Y           Z
 ---------------------------------------------------------------------
      1         17           0       -2.756459    5.960701   -0.427940
      2          6           0       -2.002429    4.488611    0.166890
      3          6           0       -2.008259    4.219761    1.538570
      4          6           0       -1.407799    3.044091    1.989810
      5          6           0       -0.810569    2.152911    1.091010
      6          6           0       -0.808169    2.430431   -0.281690
      7          6           0       -1.414499    3.609541   -0.741600
      8          6           0       -0.154270    1.510331   -1.308130
      9          7           0        0.263720    0.190401   -0.825660
     10          6           0       -0.649800   -0.842449   -0.637330
     11          8           0       -0.351060   -1.917719   -0.154390
     12          6           0       -2.097250   -0.549299   -1.080350
     13          7           0       -2.946710   -1.704129   -0.947490
     14          7           0       -3.394110   -2.333259   -2.079000
     15          7           0       -4.145890   -3.325399   -1.750130
     16          6           0       -4.216330   -3.382259   -0.371120
     17          6           0       -4.909940   -4.264849    0.475560
     18          6           0       -4.796000   -4.060619    1.843420
     19          6           0       -4.006820   -3.005519    2.368360
     20          6           0       -3.311150   -2.127319    1.547080
     21          6           0       -3.434580   -2.335799    0.163640
     22          6           0        1.650270   -0.008599   -0.520960
     23          6           0        2.409650    1.002091    0.082830
     24          6           0        3.765040    0.790741    0.317060
     25          6           0        4.348000   -0.433649   -0.050720
     26          7           0        3.615460   -1.406919   -0.632530
     27          6           0        2.319660   -1.199919   -0.858190
     28          6           0        5.767290   -0.731420    0.160680
     29          6           0        6.768440    0.065450    0.710780
     30          7           0        7.904250   -0.675650    0.677950
     31          7           0        7.731120   -1.904920    0.147040
     32          6           0        6.440130   -1.943730   -0.167450
     33          1           0       -2.477139    4.918441    2.231590
     34          1           0       -1.405259    2.818721    3.058390
     35          1           0       -0.345930    1.238391    1.463190
     36          1           0       -1.432369    3.846851   -1.807300
     37          1           0       -0.832150    1.391421   -2.167500
     38          1           0        0.743421    2.000051   -1.713070
     39          1           0       -2.510520    0.294921   -0.505500
     40          1           0       -2.128510   -0.279139   -2.145370
     41          1           0       -5.510770   -5.073889    0.057650
     42          1           0       -5.318170   -4.724329    2.535500
     43          1           0       -3.938990   -2.886019    3.451980
     44          1           0       -2.689710   -1.332159    1.959750
     45          1           0        1.951291    1.947571    0.377750
     46          1           0        4.360581    1.574651    0.788080
     47          1           0        1.774420   -2.021079   -1.324840
     48          1           0        6.760750    1.075650    1.111080
     49          1           0        6.004920   -2.829710   -0.621200
     50          1           0        8.823800   -0.402530    0.999840
 ---------------------------------------------------------------------

 SCF Done:  E(RB3LYP) =  -1806.02902256     A.U. after   15 cycles

 The electronic state is 1-A.
 Alpha  occ. eigenvalues -- -101.55975 -19.13336 -14.41302 -14.41181 -14.39540
 Alpha  occ. eigenvalues --  -14.39103 -14.34877 -14.34830 -14.33073 -10.31436
 Alpha  occ. eigenvalues --  -10.27279 -10.26603 -10.26208 -10.24791 -10.23977
 Alpha  occ. eigenvalues --  -10.23620 -10.23424 -10.23285 -10.22965 -10.22563
 Alpha  occ. eigenvalues --  -10.22538 -10.22359 -10.22105 -10.21982 -10.21178
 Alpha  occ. eigenvalues --  -10.20878 -10.20513 -10.20444 -10.20139 -10.19941
 Alpha  occ. eigenvalues --  -10.19529 -10.19321  -9.47792  -7.24053  -7.23080
 Alpha  occ. eigenvalues --   -7.23039  -1.09558  -1.06585  -1.05159  -0.97655
 Alpha  occ. eigenvalues --   -0.94762  -0.92674  -0.91214  -0.86524  -0.86105
 Alpha  occ. eigenvalues --   -0.82527  -0.81868  -0.81043  -0.79998  -0.78126
 Alpha  occ. eigenvalues --   -0.77181  -0.76196  -0.75571  -0.74356  -0.72435
 Alpha  occ. eigenvalues --   -0.67292  -0.64999  -0.64916  -0.63846  -0.62718
 Alpha  occ. eigenvalues --   -0.62286  -0.61035  -0.60203  -0.58878  -0.57376
 Alpha  occ. eigenvalues --   -0.55495  -0.54714  -0.53593  -0.52988  -0.52603
 Alpha  occ. eigenvalues --   -0.52304  -0.50274  -0.49909  -0.48564  -0.48048
 Alpha  occ. eigenvalues --   -0.47446  -0.46791  -0.46587  -0.45658  -0.45130
 Alpha  occ. eigenvalues --   -0.45088  -0.44748  -0.44683  -0.44555  -0.44069
 Alpha  occ. eigenvalues --   -0.43779  -0.42180  -0.41644  -0.41270  -0.40921
 Alpha  occ. eigenvalues --   -0.40229  -0.39633  -0.39195  -0.38548  -0.38194
 Alpha  occ. eigenvalues --   -0.37722  -0.36791  -0.35693  -0.35007  -0.33217
 Alpha  occ. eigenvalues --   -0.33025  -0.32481  -0.31299  -0.29553  -0.29431
 Alpha  occ. eigenvalues --   -0.28438  -0.27956  -0.27693  -0.26884  -0.26662
 Alpha  occ. eigenvalues --   -0.26308  -0.25930  -0.25040  -0.23599  -0.22237
 Alpha virt. eigenvalues --   -0.04729  -0.04535  -0.04287  -0.04018  -0.03319
 Alpha virt. eigenvalues --   -0.00187   0.00673   0.01292   0.01811   0.03388
 Alpha virt. eigenvalues --    0.03830   0.04626   0.05213   0.05506   0.06822

 Mulliken atomic charges:
              1
     1  Cl  -0.076242
     2  C   -0.143687
     3  C    0.119278
     4  C    0.052439
     5  C    0.019110
     6  C   -0.086555
     7  C    0.119306
     8  C    0.151096
     9  N   -0.284306
    10  C    0.125256
    11  O   -0.231703
    12  C    0.123018
    13  N   -0.229179
    14  N   -0.060160
    15  N   -0.180701
    16  C    0.011606
    17  C    0.045460
    18  C    0.038260
    19  C    0.039845
    20  C    0.031695
    21  C    0.213905
    22  C    0.042089
    23  C    0.067725
    24  C    0.018481
    25  C    0.074218
    26  N   -0.207735
    27  C    0.151329
    28  C   -0.054135
    29  C    0.070774
    30  N    0.002771
    31  N   -0.170393
    32  C    0.136022
    33  H   -0.014519
    34  H   -0.011978
    35  H   -0.014437
    36  H   -0.031158
    37  H    0.045255
    38  H    0.052583
    39  H    0.057686
    40  H    0.062642
    41  H   -0.021260
    42  H   -0.026417
    43  H   -0.025552
    44  H   -0.033126
    45  H   -0.021582
    46  H   -0.039204
    47  H    0.002894
    48  H   -0.003040
    49  H   -0.008800
    50  H    0.101123
 Sum of Mulliken atomic charges =   0.00000

 Dipole moment (field-independent basis, Debye):
    X=              2.0897    Y=              7.0485    Z=              3.7184  Tot=              8.2386
 Quadrupole moment (field-independent basis, Debye-Ang):
   XX=           -184.2197   YY=           -205.1656   ZZ=           -184.0219
   XY=             17.8727   XZ=             -2.5900   YZ=             -6.5799

 Normal termination of Gaussian 09 at Sat Sep 10 14:14:29 2022.
