 Gaussian 09, Revision C.01,
 Gaussian 09:  EM64L-G09RevC.01 23-Sep-2011

 ---------------------------------------
 #p b3lyp/cc-pvdz pop=(chelpg,readradii)
 ---------------------------------------

 (Enter /opt/gaussian/l101.exe)
 ---------
 Mol34.log
 ---------
 Charge =  0 Multiplicity = 1

                         Standard orientation:
 ---------------------------------------------------------------------
 Center     Atomic      Atomic             Coordinates (Angstroms)
 Number     Number       Type             X           Y           Z
 ---------------------------------------------------------------------
      1         17           0       -2.893938    5.960631   -0.371320
      2          6           0       -2.138029    4.463021    0.133980
      3          6           0       -2.083369    4.131761    1.494100
      4          7           0       -1.522389    3.002251    1.928600
      5          6           0       -0.994469    2.167260    1.021260
      6          6           0       -0.998609    2.407350   -0.359000
      7          6           0       -1.594109    3.594571   -0.807070
      8          6           0       -0.379349    1.456180   -1.374800
      9          7           0        0.019990    0.137980   -0.872930
     10          6           0       -0.913670   -0.875140   -0.671470
     11          8           0       -0.635370   -1.956850   -0.191850
     12          6           0       -2.362070   -0.553709   -1.096770
     13          7           0       -3.235420   -1.684049   -0.923920
     14          7           0       -3.685040   -2.352859   -2.031740
     15          7           0       -4.447571   -3.323699   -1.666590
     16          6           0       -4.521751   -3.326669   -0.286420
     17          6           0       -5.225751   -4.169158    0.591890
     18          6           0       -5.112031   -3.913569    1.951170
     19          6           0       -4.314031   -2.846509    2.437040
     20          6           0       -3.608450   -2.006819    1.584350
     21          6           0       -3.730960   -2.268199    0.209840
     22          6           0        1.411880   -0.083440   -0.591690
     23          6           0        2.187680    0.946430   -0.037740
     24          6           0        3.551520    0.764259    0.192830
     25          6           0        4.186800   -0.450821   -0.110380
     26          6           0        3.395540   -1.476311   -0.660550
     27          6           0        2.034830   -1.303180   -0.902160
     28          6           0        5.636590   -0.643971    0.137790
     29          6           0        6.275990   -0.119812    1.273410
     30          6           0        7.642140   -0.332862    1.449290
     31          6           0        8.334970   -1.069662    0.484920
     32          7           0        7.754520   -1.577782   -0.610860
     33          6           0        6.444530   -1.360872   -0.766630
     34          1           0       -2.509959    4.804341    2.243440
     35          1           0       -0.544039    1.253690    1.419510
     36          1           0       -1.637039    3.841061   -1.870440
     37          1           0       -1.074239    1.334730   -2.220290
     38          1           0        0.520211    1.921470   -1.803200
     39          1           0       -2.747630    0.311571   -0.534400
     40          1           0       -2.403410   -0.306729   -2.167290
     41          1           0       -5.834121   -4.987518    0.204120
     42          1           0       -5.642191   -4.544828    2.667100
     43          1           0       -4.247930   -2.684949    3.515230
     44          1           0       -2.983200   -1.200429    1.968960
     45          1           0        1.734141    1.903830    0.222510
     46          1           0        4.131631    1.593669    0.602260
     47          1           0        3.847960   -2.442921   -0.890000
     48          1           0        1.452770   -2.123160   -1.315440
     49          1           0        5.701770    0.429359    2.023150
     50          1           0        8.162670    0.055948    2.326890
     51          1           0        9.407190   -1.262192    0.596620
     52          1           0        6.001760   -1.766541   -1.682550
 ---------------------------------------------------------------------

 SCF Done:  E(RB3LYP) =  -1828.10501831     A.U. after   15 cycles

 The electronic state is 1-A.
 Alpha  occ. eigenvalues -- -101.56905 -19.13644 -14.41488 -14.39853 -14.39287
 Alpha  occ. eigenvalues --  -14.35962 -14.35064 -14.33211 -10.31748 -10.28024
 Alpha  occ. eigenvalues --  -10.27228 -10.26549 -10.25511 -10.25268 -10.25162
 Alpha  occ. eigenvalues --  -10.24392 -10.24317 -10.23441 -10.22882 -10.22817
 Alpha  occ. eigenvalues --  -10.21598 -10.21574 -10.21530 -10.21330 -10.21251
 Alpha  occ. eigenvalues --  -10.21037 -10.20715 -10.20665 -10.20610 -10.20597
 Alpha  occ. eigenvalues --  -10.20229 -10.20067 -10.19640  -9.48714  -7.24984
 Alpha  occ. eigenvalues --   -7.23998  -7.23957  -1.09752  -1.06880  -0.98171
 Alpha  occ. eigenvalues --   -0.97310  -0.94788  -0.92905  -0.89775  -0.87768
 Alpha  occ. eigenvalues --   -0.86654  -0.84440  -0.82164  -0.79159  -0.78226
 Alpha  occ. eigenvalues --   -0.77935  -0.77219  -0.76698  -0.75340  -0.74525
 Alpha  occ. eigenvalues --   -0.72976  -0.66694  -0.66527  -0.65119  -0.64849
 Alpha  occ. eigenvalues --   -0.64083  -0.62711  -0.62146  -0.61786  -0.59571
 Alpha  occ. eigenvalues --   -0.57440  -0.55488  -0.54725  -0.53901  -0.53355
 Alpha  occ. eigenvalues --   -0.52833  -0.52487  -0.51303  -0.50186  -0.49801
 Alpha  occ. eigenvalues --   -0.48854  -0.48035  -0.47244  -0.46886  -0.46452
 Alpha  occ. eigenvalues --   -0.46293  -0.45283  -0.45119  -0.44894  -0.44580
 Alpha  occ. eigenvalues --   -0.44116  -0.43906  -0.43715  -0.42868  -0.42501
 Alpha  occ. eigenvalues --   -0.41237  -0.40925  -0.40656  -0.40163  -0.39464
 Alpha  occ. eigenvalues --   -0.38408  -0.37809  -0.37281  -0.36948  -0.36903
 Alpha  occ. eigenvalues --   -0.36067  -0.35802  -0.34112  -0.33354  -0.32035
 Alpha  occ. eigenvalues --   -0.31523  -0.31075  -0.29433  -0.28631  -0.28368
 Alpha  occ. eigenvalues --   -0.27912  -0.27442  -0.26925  -0.26856  -0.26105
 Alpha  occ. eigenvalues --   -0.25177  -0.23779  -0.23420
 Alpha virt. eigenvalues --   -0.06526  -0.05372  -0.04860  -0.04442  -0.03325
 Alpha virt. eigenvalues --   -0.02606  -0.01309   0.00474   0.00815   0.01572
 Alpha virt. eigenvalues --    0.03086   0.03530   0.05490   0.05740   0.06207

 Mulliken atomic charges:
              1
     1  Cl  -0.063333
     2  C   -0.186267
     3  C    0.178288
     4  N   -0.162416
     5  C    0.099737
     6  C   -0.149171
     7  C    0.187641
     8  C    0.148695
     9  N   -0.284466
    10  C    0.131023
    11  O   -0.230608
    12  C    0.121304
    13  N   -0.228729
    14  N   -0.061064
    15  N   -0.180499
    16  C    0.011569
    17  C    0.045268
    18  C    0.038461
    19  C    0.039775
    20  C    0.028617
    21  C    0.213382
    22  C    0.099027
    23  C    0.024649
    24  C    0.018490
    25  C    0.034548
    26  C    0.017615
    27  C    0.079565
    28  C   -0.043482
    29  C    0.074894
    30  C   -0.008025
    31  C    0.105818
    32  N   -0.172662
    33  C    0.099515
    34  H    0.014233
    35  H    0.015023
    36  H   -0.018049
    37  H    0.044079
    38  H    0.055634
    39  H    0.055551
    40  H    0.062737
    41  H   -0.021136
    42  H   -0.025819
    43  H   -0.023155
    44  H   -0.027475
    45  H   -0.024833
    46  H   -0.035592
    47  H   -0.027223
    48  H   -0.010557
    49  H   -0.026422
    50  H   -0.022344
    51  H   -0.002476
    52  H   -0.009332
 Sum of Mulliken atomic charges =   0.00000

 Dipole moment (field-independent basis, Debye):
    X=              1.0695    Y=              5.0397    Z=              1.5409  Tot=              5.3774
 Quadrupole moment (field-independent basis, Debye-Ang):
   XX=           -208.7009   YY=           -204.4820   ZZ=           -194.8538
   XY=              1.6870   XZ=              0.9561   YZ=            -12.6517

 Normal termination of Gaussian 09 at Sat Sep 10 13:03:05 2022.
