 Gaussian 09, Revision C.01,
 Gaussian 09:  EM64L-G09RevC.01 23-Sep-2011

 ---------------------------------------
 #p b3lyp/cc-pvdz pop=(chelpg,readradii)
 ---------------------------------------

 (Enter /opt/gaussian/l101.exe)
 ---------
 Mol41.log
 ---------
 Charge =  0 Multiplicity = 1

                         Standard orientation:
 ---------------------------------------------------------------------
 Center     Atomic      Atomic             Coordinates (Angstroms)
 Number     Number       Type             X           Y           Z
 ---------------------------------------------------------------------
      1          6           0       -4.271041   -1.041591   -0.423021
      2          6           0       -5.321520   -1.898031   -0.028611
      3          6           0       -4.480991    0.049129   -1.283311
      4          6           0       -6.632600   -1.687951   -0.491981
      5          6           0       -5.780121    0.237179   -1.736881
      6          6           0       -6.844091   -0.617281   -1.348851
      7          7           0       -3.176130   -1.570821    0.203869
      8          7           0       -4.807410   -2.870901    0.806649
      9          7           0       -3.541180   -2.669121    0.934899
     10          6           0       -1.785471   -1.188771    0.165379
     11          6           0       -1.523961    0.148729    0.879609
     12          7           0       -0.207891    0.437870    1.149069
     13          8           0       -2.441941    0.904899    1.168199
     14          6           0        0.098149    1.703160    1.851639
     15          6           0        1.997919    4.325160   -0.164881
     16          6           0        0.971769    5.001700   -0.824281
     17          6           0        1.729449    3.263700    0.702529
     18          6           0       -0.348801    4.598130   -0.600521
     19          6           0        0.404759    2.861660    0.920469
     20          6           0       -0.635691    3.539479    0.262909
     21         17           0        3.669089    4.818740   -0.427501
     22          6           0        2.531099   -1.067400   -0.908331
     23          6           0        3.076910   -2.012650   -0.020881
     24          6           0        1.452849   -0.267670   -0.531131
     25          6           0        2.507280   -2.130880    1.260919
     26          6           0        0.887989   -0.399510    0.744929
     27          6           0        1.428899   -1.333760    1.639719
     28          6           0        4.212230   -2.867310   -0.394461
     29          6           0        4.909900   -2.922530   -1.589901
     30          7           0        4.740830   -3.786000    0.496709
     31          7           0        5.871100   -3.890470   -1.408911
     32          6           0        5.726590   -4.377880   -0.139071
     33          1           0       -3.674631    0.727479   -1.561701
     34          1           0       -7.441090   -2.351371   -0.181141
     35          1           0       -5.993011    1.074389   -2.405551
     36          1           0       -7.847461   -0.419281   -1.731461
     37          1           0       -1.224960   -2.008061    0.632159
     38          1           0       -1.443601   -1.110071   -0.880091
     39          1           0       -0.779661    1.938759    2.467269
     40          1           0        0.954789    1.509830    2.512239
     41          1           0        1.204029    5.830100   -1.494091
     42          1           0        2.553939    2.757090    1.206689
     43          1           0       -1.161791    5.125509   -1.104771
     44          1           0       -1.666171    3.225139    0.437109
     45          1           0        2.953389   -0.945800   -1.907981
     46          1           0        1.044179    0.469800   -1.224211
     47          1           0        2.928300   -2.863300    1.949969
     48          1           0        0.991080   -1.435720    2.635309
     49          1           0        4.815350   -2.380060   -2.524921
     50          1           0        6.556830   -4.184630   -2.093001
     51          1           0        6.367260   -5.160330    0.262099
 ---------------------------------------------------------------------

 SCF Done:  E(RB3LYP) =  -1790.01958686     A.U. after   15 cycles

 The electronic state is 1-A.
 Alpha  occ. eigenvalues -- -101.54552 -19.12138 -14.40826 -14.40596 -14.38404
 Alpha  occ. eigenvalues --  -14.37505 -14.34216 -14.32530 -10.30128 -10.25780
 Alpha  occ. eigenvalues --  -10.25471 -10.25007 -10.24035 -10.23683 -10.23493
 Alpha  occ. eigenvalues --  -10.22619 -10.22222 -10.21528 -10.21211 -10.20879
 Alpha  occ. eigenvalues --  -10.20763 -10.20733 -10.20729 -10.20683 -10.20614
 Alpha  occ. eigenvalues --  -10.20574 -10.20009 -10.19873 -10.19815 -10.19564
 Alpha  occ. eigenvalues --  -10.19406 -10.19021  -9.46365  -7.22620  -7.21656
 Alpha  occ. eigenvalues --   -7.21620  -1.08826  -1.05181  -1.03326  -0.95708
 Alpha  occ. eigenvalues --   -0.91833  -0.89496  -0.89398  -0.86552  -0.85913
 Alpha  occ. eigenvalues --   -0.84241  -0.79255  -0.78305  -0.77099  -0.76370
 Alpha  occ. eigenvalues --   -0.76235  -0.74529  -0.74202  -0.73632  -0.69948
 Alpha  occ. eigenvalues --   -0.65726  -0.64367  -0.63984  -0.62092  -0.61774
 Alpha  occ. eigenvalues --   -0.61700  -0.60728  -0.59259  -0.58399  -0.57376
 Alpha  occ. eigenvalues --   -0.56447  -0.53965  -0.52306  -0.52083  -0.51712
 Alpha  occ. eigenvalues --   -0.49769  -0.48810  -0.48239  -0.47967  -0.47012
 Alpha  occ. eigenvalues --   -0.46362  -0.46154  -0.45517  -0.45207  -0.45084
 Alpha  occ. eigenvalues --   -0.44946  -0.44257  -0.43897  -0.43531  -0.43286
 Alpha  occ. eigenvalues --   -0.42906  -0.42763  -0.41275  -0.40360  -0.39745
 Alpha  occ. eigenvalues --   -0.38816  -0.38412  -0.37674  -0.37233  -0.36585
 Alpha  occ. eigenvalues --   -0.36195  -0.35972  -0.35885  -0.35099  -0.33423
 Alpha  occ. eigenvalues --   -0.32468  -0.31626  -0.31465  -0.30604  -0.28783
 Alpha  occ. eigenvalues --   -0.28423  -0.27531  -0.27032  -0.26492  -0.26063
 Alpha  occ. eigenvalues --   -0.25966  -0.24984  -0.24446  -0.23067  -0.22485
 Alpha virt. eigenvalues --   -0.04465  -0.03699  -0.02829  -0.02473  -0.01988
 Alpha virt. eigenvalues --    0.00522   0.01216   0.01477   0.02751   0.03150
 Alpha virt. eigenvalues --    0.04078   0.04686   0.05870   0.06504   0.07147

 Mulliken atomic charges:
              1
     1  C    0.211342
     2  C    0.010199
     3  C    0.034509
     4  C    0.043594
     5  C    0.037753
     6  C    0.036954
     7  N   -0.230069
     8  N   -0.183833
     9  N   -0.060903
    10  C    0.152829
    11  C    0.136496
    12  N   -0.247119
    13  O   -0.267582
    14  C    0.193453
    15  C   -0.140943
    16  C    0.114292
    17  C    0.122639
    18  C    0.045133
    19  C   -0.085241
    20  C    0.032542
    21  Cl  -0.094091
    22  C   -0.004676
    23  C    0.016162
    24  C    0.092230
    25  C    0.053932
    26  C   -0.028227
    27  C    0.092640
    28  C    0.097832
    29  C    0.003394
    30  N   -0.217943
    31  N   -0.043501
    32  C    0.140360
    33  H   -0.032465
    34  H   -0.023992
    35  H   -0.027777
    36  H   -0.028994
    37  H    0.060439
    38  H    0.050441
    39  H    0.043237
    40  H    0.009199
    41  H   -0.021543
    42  H   -0.029270
    43  H   -0.018256
    44  H   -0.015455
    45  H   -0.044052
    46  H   -0.033373
    47  H   -0.025302
    48  H   -0.032479
    49  H    0.000494
    50  H    0.096311
    51  H    0.008683
 Sum of Mulliken atomic charges =   0.00000

 Dipole moment (field-independent basis, Debye):
    X=              6.6009    Y=             -0.2848    Z=             -5.0346  Tot=              8.3066
 Quadrupole moment (field-independent basis, Debye-Ang):
   XX=           -169.6134   YY=           -192.2107   ZZ=           -180.6477
   XY=            -40.2543   XZ=             -4.7970   YZ=              9.8741

 Normal termination of Gaussian 09 at Sat Sep 10 14:40:52 2022.
