 Gaussian 09, Revision C.01,
 Gaussian 09:  EM64L-G09RevC.01 23-Sep-2011

 -------------------------
 #p opt freq b3lyp/cc-pvdz
 -------------------------

 (Enter /opt/gaussian/l101.exe)
 ---------
 Mol07.log
 ---------
 Charge =  0 Multiplicity = 1

 SCF Done:  E(RB3LYP) =  -1657.17891220     A.U. after   16 cycles
 SCF Done:  E(RB3LYP) =  -1657.19017880     A.U. after   13 cycles
 SCF Done:  E(RB3LYP) =  -1657.19089161     A.U. after   13 cycles
 SCF Done:  E(RB3LYP) =  -1657.19071763     A.U. after   13 cycles
 SCF Done:  E(RB3LYP) =  -1657.19090416     A.U. after   13 cycles
 SCF Done:  E(RB3LYP) =  -1657.19111855     A.U. after   12 cycles
 SCF Done:  E(RB3LYP) =  -1657.19115033     A.U. after   13 cycles
 SCF Done:  E(RB3LYP) =  -1657.19116612     A.U. after   12 cycles
 SCF Done:  E(RB3LYP) =  -1657.19117527     A.U. after   11 cycles
 SCF Done:  E(RB3LYP) =  -1657.19117883     A.U. after    9 cycles
 SCF Done:  E(RB3LYP) =  -1657.19117953     A.U. after   10 cycles
 SCF Done:  E(RB3LYP) =  -1657.19118066     A.U. after    8 cycles
 SCF Done:  E(RB3LYP) =  -1657.19118109     A.U. after    8 cycles
 SCF Done:  E(RB3LYP) =  -1657.19118128     A.U. after    8 cycles
 SCF Done:  E(RB3LYP) =  -1657.19118137     A.U. after    7 cycles
 Optimization completed.
    -- Stationary point found.
 Normal termination of Gaussian 09 at Wed Aug 31 00:32:07 2022.

 -------------------------------------------------------------------
 #P Geom=AllCheck Guess=TCheck SCRF=Check GenChk RB3LYP/CC-pVDZ Freq
 -------------------------------------------------------------------

 Structure from the checkpoint file:  /home/scr/lqcapf-6/Gau-31097.chk
 ---------
 Mol07.log
 ---------
 Charge =  0 Multiplicity = 1

                         Standard orientation:
 ---------------------------------------------------------------------
 Center     Atomic      Atomic             Coordinates (Angstroms)
 Number     Number       Type             X           Y           Z
 ---------------------------------------------------------------------
      1          8           0       -3.283513   -2.453469    0.271870
      2          6           0       -2.193538   -1.897361    0.234509
      3          6           0       -1.027366   -2.485233    1.049324
      4          7           0        0.151347   -2.797166    0.258525
      5          7           0        0.019671   -3.297308   -1.004071
      6          7           0        1.187526   -3.560784   -1.488970
      7          6           0        2.135126   -3.250720   -0.533522
      8          6           0        1.474169   -2.755478    0.611071
      9          6           0        2.172615   -2.354052    1.762560
     10          6           0        3.556796   -2.464965    1.715326
     11          6           0        4.232758   -2.958907    0.570120
     12          6           0        3.537201   -3.356332   -0.563355
     13          7           0       -1.968214   -0.758632   -0.496642
     14          6           0       -3.079883   -0.267684   -1.342202
     15          6           0       -4.023759    0.677940   -0.634128
     16          6           0       -5.030030    0.264204    0.207810
     17         16           0       -5.922658    1.602306    0.858792
     18          6           0       -4.938475    2.742265   -0.009729
     19          6           0       -3.978362    2.107744   -0.752861
     20          6           0       -0.788056    0.049257   -0.391382
     21          6           0       -0.603007    0.896711    0.708731
     22          6           0        0.535226    1.700684    0.794728
     23          6           0        1.508236    1.694505   -0.220886
     24          6           0        1.297926    0.850546   -1.328592
     25          6           0        0.169007    0.037839   -1.415021
     26          6           0        2.721081    2.549661   -0.127122
     27          6           0        2.649470    3.852427    0.400489
     28          6           0        3.789112    4.654182    0.489103
     29          6           0        5.026211    4.170924    0.052666
     30          6           0        5.112794    2.878448   -0.473139
     31          6           0        3.973259    2.076566   -0.562229
     32          1           0       -1.429260   -3.393943    1.518949
     33          1           0       -0.722151   -1.782980    1.838135
     34          1           0        1.663728   -1.974311    2.649739
     35          1           0        4.143498   -2.164623    2.586202
     36          1           0        5.322271   -3.027960    0.589256
     37          1           0        4.043648   -3.740820   -1.449957
     38          1           0       -2.627510    0.232078   -2.209874
     39          1           0       -3.622400   -1.154957   -1.691156
     40          1           0       -5.274210   -0.759785    0.481793
     41          1           0       -5.132193    3.809478    0.075630
     42          1           0       -3.257153    2.637489   -1.377218
     43          1           0       -1.358229    0.923189    1.496794
     44          1           0        0.676631    2.332675    1.673630
     45          1           0        2.025442    0.838413   -2.142172
     46          1           0        0.029582   -0.626568   -2.269248
     47          1           0        1.684644    4.251522    0.720915
     48          1           0        3.708021    5.665789    0.893572
     49          1           0        5.917642    4.798276    0.121612
     50          1           0        6.075883    2.487385   -0.809344
     51          1           0        4.059367    1.058719   -0.948403
 ---------------------------------------------------------------------

 SCF Done:  E(RB3LYP) =  -1657.19118137     A.U. after    1 cycles

 The electronic state is 1-A.
 Alpha  occ. eigenvalues --  -88.90620 -19.11809 -14.41904 -14.39502 -14.37059
 Alpha  occ. eigenvalues --  -14.35444 -10.30032 -10.25460 -10.24075 -10.23919
 Alpha  occ. eigenvalues --  -10.23237 -10.21816 -10.21511 -10.21323 -10.21246
 Alpha  occ. eigenvalues --  -10.21018 -10.20845 -10.20818 -10.20815 -10.20684
 Alpha  occ. eigenvalues --  -10.20650 -10.20569 -10.20519 -10.20235 -10.20094
 Alpha  occ. eigenvalues --  -10.20062 -10.20041 -10.19994 -10.19975 -10.19680
 Alpha  occ. eigenvalues --  -10.19350  -7.96830  -5.93146  -5.92770  -5.92481
 Alpha  occ. eigenvalues --   -1.10006  -1.04870  -0.95400  -0.92773  -0.88067
 Alpha  occ. eigenvalues --   -0.87690  -0.87157  -0.85563  -0.79000  -0.78514
 Alpha  occ. eigenvalues --   -0.77662  -0.76541  -0.76253  -0.75422  -0.74571
 Alpha  occ. eigenvalues --   -0.73145  -0.72503  -0.68205  -0.65628  -0.64711
 Alpha  occ. eigenvalues --   -0.63409  -0.62962  -0.60792  -0.60524  -0.59663
 Alpha  occ. eigenvalues --   -0.56999  -0.56700  -0.54841  -0.53984  -0.53404
 Alpha  occ. eigenvalues --   -0.53250  -0.51865  -0.50179  -0.49040  -0.48829
 Alpha  occ. eigenvalues --   -0.47907  -0.47423  -0.47282  -0.45592  -0.45319
 Alpha  occ. eigenvalues --   -0.45244  -0.45107  -0.45046  -0.43766  -0.43286
 Alpha  occ. eigenvalues --   -0.42702  -0.42235  -0.41638  -0.41428  -0.39468
 Alpha  occ. eigenvalues --   -0.39178  -0.38939  -0.38444  -0.38024  -0.37432
 Alpha  occ. eigenvalues --   -0.37308  -0.37084  -0.36512  -0.36472  -0.36137
 Alpha  occ. eigenvalues --   -0.35222  -0.34719  -0.34236  -0.33582  -0.31769
 Alpha  occ. eigenvalues --   -0.29317  -0.27442  -0.27102  -0.26706  -0.26324
 Alpha  occ. eigenvalues --   -0.25971  -0.25540  -0.25028  -0.24321  -0.23938
 Alpha  occ. eigenvalues --   -0.23129
 Alpha virt. eigenvalues --   -0.05120  -0.04748  -0.02750  -0.01786  -0.01617
 Alpha virt. eigenvalues --   -0.00069   0.00057   0.01045   0.02648   0.03828
 Alpha virt. eigenvalues --    0.04830   0.05139   0.05674   0.06279   0.07236

 Mulliken atomic charges:
              1
     1  O   -0.266618
     2  C    0.125863
     3  C    0.186595
     4  N   -0.252390
     5  N   -0.054128
     6  N   -0.180604
     7  C    0.006678
     8  C    0.208277
     9  C    0.019459
    10  C    0.042108
    11  C    0.036655
    12  C    0.043063
    13  N   -0.233968
    14  C    0.186115
    15  C   -0.033904
    16  C   -0.128832
    17  S    0.142739
    18  C   -0.110381
    19  C    0.054099
    20  C   -0.020410
    21  C    0.080839
    22  C    0.025957
    23  C    0.041356
    24  C    0.030188
    25  C    0.089250
    26  C    0.015837
    27  C    0.012132
    28  C    0.044181
    29  C    0.034499
    30  C    0.043906
    31  C    0.011769
    32  H    0.052715
    33  H    0.043104
    34  H   -0.024544
    35  H   -0.022063
    36  H   -0.024915
    37  H   -0.020879
    38  H    0.008736
    39  H    0.042057
    40  H    0.022118
    41  H    0.010425
    42  H   -0.028194
    43  H   -0.028006
    44  H   -0.032488
    45  H   -0.028735
    46  H   -0.020019
    47  H   -0.037514
    48  H   -0.027028
    49  H   -0.028112
    50  H   -0.026736
    51  H   -0.030251
 Sum of Mulliken atomic charges =   0.00000

 Dipole moment (field-independent basis, Debye):
    X=              3.4385    Y=              3.8174    Z=              2.4326  Tot=              5.6845
 Quadrupole moment (field-independent basis, Debye-Ang):
   XX=           -181.2920   YY=           -189.9199   ZZ=           -181.5536
   XY=             -5.9032   XZ=              0.1526   YZ=             -6.1633

  Exact polarizability: 403.312  31.385 283.406 -25.469  34.761 218.338
 Approx polarizability: 618.806  60.095 451.219 -60.530  86.158 432.897

                     1                      2                      3
                     A                      A                      A
 Frequencies --    13.5570                18.2331                20.3534
 Red. masses --     5.8865                 6.6972                 7.3602
 Frc consts  --     0.0006                 0.0013                 0.0018
 IR Inten    --     0.1164                 0.3097                 0.3085

                     4                      5                      6
                     A                      A                      A
 Frequencies --    28.1507                32.6038                44.8204
 Red. masses --     4.7488                 4.9199                 4.8829
 Frc consts  --     0.0022                 0.0031                 0.0058
 IR Inten    --     1.1291                 0.0481                 1.2452

                     7                      8                      9
                     A                      A                      A
 Frequencies --    48.8835                65.0987                75.9516
 Red. masses --     5.1042                 8.4479                 3.9639
 Frc consts  --     0.0072                 0.0211                 0.0135
 IR Inten    --     0.1221                 1.8710                 0.3285

                    10                     11                     12
                     A                      A                      A
 Frequencies --    88.6410                99.2803               110.7445
 Red. masses --     6.1869                 5.5297                 6.9570
 Frc consts  --     0.0286                 0.0321                 0.0503
 IR Inten    --     0.3950                 0.3233                 1.6215

                    13                     14                     15
                     A                      A                      A
 Frequencies --   145.6841               163.3869               177.8028
 Red. masses --     5.3095                 5.2515                 6.3985
 Frc consts  --     0.0664                 0.0826                 0.1192
 IR Inten    --     2.2456                 0.6869                 0.1935

                    16                     17                     18
                     A                      A                      A
 Frequencies --   207.1029               230.8151               236.0402
 Red. masses --     4.0593                 5.6882                 4.6932
 Frc consts  --     0.1026                 0.1785                 0.1541
 IR Inten    --     3.4501                 0.2692                 2.8125

                    19                     20                     21
                     A                      A                      A
 Frequencies --   263.0495               290.9746               307.5296
 Red. masses --     6.3623                 6.2167                 5.4525
 Frc consts  --     0.2594                 0.3101                 0.3038
 IR Inten    --     1.2911                 0.6203                 1.1902

                    22                     23                     24
                     A                      A                      A
 Frequencies --   342.8045               372.7912               416.6664
 Red. masses --     3.2292                 2.9807                 3.1359
 Frc consts  --     0.2236                 0.2441                 0.3208
 IR Inten    --     2.1965                 2.0867                 1.0859

                    25                     26                     27
                     A                      A                      A
 Frequencies --   417.2186               427.5054               433.8793
 Red. masses --     2.9282                 3.2227                 4.2378
 Frc consts  --     0.3003                 0.3470                 0.4700
 IR Inten    --     0.7950                 0.8577                 1.9312

                    28                     29                     30
                     A                      A                      A
 Frequencies --   440.5643               455.1917               463.7556
 Red. masses --     2.9065                 6.2926                 4.7900
 Frc consts  --     0.3324                 0.7682                 0.6070
 IR Inten    --     2.9084                 8.4151                 0.2834

                    31                     32                     33
                     A                      A                      A
 Frequencies --   480.7357               499.5164               531.9025
 Red. masses --     6.0236                 5.3735                 3.6829
 Frc consts  --     0.8202                 0.7900                 0.6139
 IR Inten    --     2.1922                 4.2880                13.0174

                    34                     35                     36
                     A                      A                      A
 Frequencies --   547.5861               562.0268               578.4779
 Red. masses --     5.4854                 6.5271                 4.5991
 Frc consts  --     0.9691                 1.2147                 0.9068
 IR Inten    --     1.0102                 0.1692                 9.2279

                    37                     38                     39
                     A                      A                      A
 Frequencies --   584.7203               596.6477               627.6986
 Red. masses --     4.0194                 2.7714                 5.3464
 Frc consts  --     0.8097                 0.5813                 1.2411
 IR Inten    --     0.8543                41.4800                 6.3195

                    40                     41                     42
                     A                      A                      A
 Frequencies --   629.5664               648.5391               651.7162
 Red. masses --     6.1343                 4.5128                 6.7832
 Frc consts  --     1.4325                 1.1183                 1.6975
 IR Inten    --     0.5177                 9.4934                 1.4500

                    43                     44                     45
                     A                      A                      A
 Frequencies --   667.5516               673.6266               686.8607
 Red. masses --     7.2645                 6.1814                 1.4419
 Frc consts  --     1.9073                 1.6526                 0.4008
 IR Inten    --     2.9450                13.3270                12.1069

                    46                     47                     48
                     A                      A                      A
 Frequencies --   701.4071               716.2262               738.8003
 Red. masses --     3.1784                 1.7405                 3.1736
 Frc consts  --     0.9213                 0.5261                 1.0206
 IR Inten    --     3.2843                24.0225                18.3815

                    49                     50                     51
                     A                      A                      A
 Frequencies --   755.3132               760.5005               778.7169
 Red. masses --     2.8479                 1.3824                 3.7282
 Frc consts  --     0.9573                 0.4711                 1.3320
 IR Inten    --    40.1013                50.2906                17.3006

                    52                     53                     54
                     A                      A                      A
 Frequencies --   787.7636               788.7669               797.7606
 Red. masses --     3.2434                 2.3293                 5.1731
 Frc consts  --     1.1859                 0.8538                 1.9398
 IR Inten    --     5.1309                 5.9456                 9.0847

                    55                     56                     57
                     A                      A                      A
 Frequencies --   806.5415               818.3854               836.7128
 Red. masses --     3.8853                 2.5581                 3.1120
 Frc consts  --     1.4891                 1.0094                 1.2837
 IR Inten    --    13.6246                17.9728                35.1159

                    58                     59                     60
                     A                      A                      A
 Frequencies --   853.9646               857.0504               862.8571
 Red. masses --     1.2649                 3.0426                 1.2552
 Frc consts  --     0.5435                 1.3168                 0.5506
 IR Inten    --     2.0182                12.3893                 0.2926

                    61                     62                     63
                     A                      A                      A
 Frequencies --   866.7189               870.6888               890.9479
 Red. masses --     1.5518                 1.7381                 1.5366
 Frc consts  --     0.6868                 0.7763                 0.7187
 IR Inten    --     0.5851                13.5603                 3.3581

                    64                     65                     66
                     A                      A                      A
 Frequencies --   896.7140               920.1096               940.9476
 Red. masses --     2.0392                 5.1145                 1.4451
 Frc consts  --     0.9661                 2.5511                 0.7538
 IR Inten    --     7.3505                 0.9926                 0.9605

                    67                     68                     69
                     A                      A                      A
 Frequencies --   951.4141               960.0770               970.2678
 Red. masses --     3.3014                 1.3643                 2.7301
 Frc consts  --     1.7607                 0.7409                 1.5143
 IR Inten    --    10.3235                 1.0680                12.6245

                    70                     71                     72
                     A                      A                      A
 Frequencies --   979.6009               989.8673               991.4241
 Red. masses --     1.3622                 1.3720                 1.3700
 Frc consts  --     0.7702                 0.7920                 0.7934
 IR Inten    --     0.2008                 0.1371                 0.2684

                    73                     74                     75
                     A                      A                      A
 Frequencies --   998.6459              1011.2160              1012.6266
 Red. masses --     1.2926                 1.2952                 5.4796
 Frc consts  --     0.7595                 0.7803                 3.3105
 IR Inten    --     0.0191                 0.0490                 3.1590

                    76                     77                     78
                     A                      A                      A
 Frequencies --  1019.7529              1023.4850              1027.0131
 Red. masses --     4.2223                 2.0071                 3.9447
 Frc consts  --     2.5870                 1.2387                 2.4514
 IR Inten    --    14.7001                 7.2021                 0.6158

                    79                     80                     81
                     A                      A                      A
 Frequencies --  1042.7912              1061.6110              1070.1374
 Red. masses --     2.3450                 1.9981                 3.3704
 Frc consts  --     1.5024                 1.3268                 2.2741
 IR Inten    --     2.5101                 0.7126                 8.8982

                    82                     83                     84
                     A                      A                      A
 Frequencies --  1086.5587              1087.0808              1102.3123
 Red. masses --     3.9616                 1.1454                 1.5366
 Frc consts  --     2.7557                 0.7975                 1.1001
 IR Inten    --    63.8182                 2.9143                 4.3050

                    85                     86                     87
                     A                      A                      A
 Frequencies --  1124.8160              1128.9477              1150.7981
 Red. masses --     1.2977                 1.8294                 1.5486
 Frc consts  --     0.9674                 1.3737                 1.2083
 IR Inten    --     5.1137                 1.1033                 6.2701

                    88                     89                     90
                     A                      A                      A
 Frequencies --  1163.6994              1171.7396              1177.9163
 Red. masses --     1.5615                 1.0810                 1.6880
 Frc consts  --     1.2459                 0.8745                 1.3799
 IR Inten    --    12.4063                 0.0135                15.8937

                    91                     92                     93
                     A                      A                      A
 Frequencies --  1189.9343              1198.3735              1216.5826
 Red. masses --     1.1186                 1.1259                 1.5699
 Frc consts  --     0.9332                 0.9527                 1.3690
 IR Inten    --     2.5569                 0.5963                16.8534

                    94                     95                     96
                     A                      A                      A
 Frequencies --  1244.1704              1263.0967              1279.8784
 Red. masses --     1.3971                 1.5733                 3.7475
 Frc consts  --     1.2742                 1.4789                 3.6169
 IR Inten    --    30.9419                28.7792                 7.3130

                    97                     98                     99
                     A                      A                      A
 Frequencies --  1300.4936              1304.5667              1306.5610
 Red. masses --     1.8516                 2.5315                 1.7188
 Frc consts  --     1.8450                 2.5384                 1.7287
 IR Inten    --     2.4233                34.8546                11.1992

                   100                    101                    102
                     A                      A                      A
 Frequencies --  1312.0261              1318.0662              1341.4019
 Red. masses --     2.4305                 1.8994                 3.4041
 Frc consts  --     2.4651                 1.9442                 3.6088
 IR Inten    --   118.4785                39.3595                 0.4480

                   103                    104                    105
                     A                      A                      A
 Frequencies --  1352.5247              1356.3498              1364.0313
 Red. masses --     1.8963                 2.8839                 3.0615
 Frc consts  --     2.0438                 3.1258                 3.3561
 IR Inten    --    19.0222                 0.1866                11.3461

                   106                    107                    108
                     A                      A                      A
 Frequencies --  1379.5810              1410.8081              1423.7848
 Red. masses --     1.3629                 3.9333                 3.3364
 Frc consts  --     1.5283                 4.6125                 3.9849
 IR Inten    --     8.0627                56.1491                 1.8402

                   109                    110                    111
                     A                      A                      A
 Frequencies --  1430.0041              1432.3800              1437.0768
 Red. masses --     3.7422                 4.2779                 1.9502
 Frc consts  --     4.5087                 5.1712                 2.3730
 IR Inten    --    12.7858                 8.1259                34.9517

                   112                    113                    114
                     A                      A                      A
 Frequencies --  1446.6508              1456.8243              1463.8703
 Red. masses --     1.5104                 1.2194                 5.0059
 Frc consts  --     1.8624                 1.5248                 6.3204
 IR Inten    --    77.7681                 6.1785                18.6187

                   115                    116                    117
                     A                      A                      A
 Frequencies --  1475.8612              1485.4179              1517.6656
 Red. masses --     2.4637                 3.0341                 2.3105
 Frc consts  --     3.1617                 3.9443                 3.1355
 IR Inten    --     1.6791                12.6163                58.8976

                   118                    119                    120
                     A                      A                      A
 Frequencies --  1525.2755              1547.9629              1580.6428
 Red. masses --     3.6679                 2.9997                 6.0776
 Frc consts  --     5.0277                 4.2350                 8.9464
 IR Inten    --     7.7536                40.2067                 0.7576

                   121                    122                    123
                     A                      A                      A
 Frequencies --  1604.2277              1630.7760              1634.1024
 Red. masses --     6.3607                 6.2986                 7.4678
 Frc consts  --     9.6447                 9.8692                11.7490
 IR Inten    --     1.2183                 1.8237                 1.7592

                   124                    125                    126
                     A                      A                      A
 Frequencies --  1653.1387              1656.8384              1665.4716
 Red. masses --     6.0038                 6.2791                 7.4244
 Frc consts  --     9.6671                10.1556                12.1335
 IR Inten    --     5.8601                 1.3212                 8.1803

                   127                    128                    129
                     A                      A                      A
 Frequencies --  1747.0384              3071.7917              3075.8316
 Red. masses --    10.4449                 1.0580                 1.0614
 Frc consts  --    18.7828                 5.8821                 5.9164
 IR Inten    --   388.9825                 9.0937                16.0191

                   130                    131                    132
                     A                      A                      A
 Frequencies --  3125.9814              3138.4569              3171.1829
 Red. masses --     1.1076                 1.1047                 1.0843
 Frc consts  --     6.3767                 6.4108                 6.4244
 IR Inten    --     7.4379                 3.4545                 4.3174

                   133                    134                    135
                     A                      A                      A
 Frequencies --  3177.6513              3180.2158              3183.3890
 Red. masses --     1.0873                 1.0856                 1.0880
 Frc consts  --     6.4687                 6.4691                 6.4963
 IR Inten    --     2.0984                 1.3652                13.4430

                   136                    137                    138
                     A                      A                      A
 Frequencies --  3187.8330              3190.5977              3192.7709
 Red. masses --     1.0905                 1.0898                 1.0894
 Frc consts  --     6.5296                 6.5367                 6.5431
 IR Inten    --     9.8955                 3.1283                 7.6940

                   139                    140                    141
                     A                      A                      A
 Frequencies --  3194.8414              3199.9199              3202.6302
 Red. masses --     1.0937                 1.0955                 1.0990
 Frc consts  --     6.5773                 6.6092                 6.6412
 IR Inten    --    18.8056                 8.5470                14.5917

                   142                    143                    144
                     A                      A                      A
 Frequencies --  3203.0258              3203.9042              3208.7187
 Red. masses --     1.0910                 1.0955                 1.0955
 Frc consts  --     6.5945                 6.6256                 6.6456
 IR Inten    --     3.3455                10.2960                 0.9736

                   145                    146                    147
                     A                      A                      A
 Frequencies --  3211.3530              3251.2097              3256.8382
 Red. masses --     1.0970                 1.0978                 1.0959
 Frc consts  --     6.6658                 6.8371                 6.8488
 IR Inten    --     7.5862                 0.3996                 6.2926

 - Thermochemistry -
 -------------------
 Temperature   298.150 Kelvin.  Pressure   1.00000 Atm.
 Atom     1 has atomic number  8 and mass  15.99491

 Molecular mass:   424.13578 amu.
 Principal axes and moments of inertia in atomic units:
                           1         2         3
     Eigenvalues --  ******************************
           X            0.99995   0.00980   0.00307
           Y           -0.00979   0.99995  -0.00312
           Z           -0.00310   0.00309   0.99999
 This molecule is an asymmetric top.
 Rotational symmetry number  1.
 Warning -- assumption of classical behavior for rotation
           may cause significant error
 Rotational temperatures (Kelvin)      0.00823     0.00485     0.00333
 Rotational constants (GHZ):           0.17154     0.10108     0.06941
 Zero-point vibrational energy    1043972.3 (Joules/Mol)
                                  249.51538 (Kcal/Mol)
 Warning -- explicit consideration of  38 degrees of freedom as
           vibrations may cause significant error
 Vibrational temperatures:     19.51    26.23    29.28    40.50    46.91
          (Kelvin)             64.49    70.33    93.66   109.28   127.53
                              142.84   159.34   209.61   235.08   255.82
                              297.97   332.09   339.61   378.47   418.65
                              442.47   493.22   536.36   599.49   600.28
                              615.08   624.25   633.87   654.92   667.24
                              691.67   718.69   765.29   787.85   808.63
                              832.30   841.28   858.44   903.12   905.80
                              933.10   937.67   960.46   969.20   988.24
                             1009.17  1030.49  1062.97  1086.73  1094.19
                             1120.40  1133.41  1134.86  1147.80  1160.43
                             1177.47  1203.84  1228.66  1233.10  1241.46
                             1247.01  1252.73  1281.87  1290.17  1323.83
                             1353.81  1368.87  1381.34  1396.00  1409.43
                             1424.20  1426.44  1436.83  1454.91  1456.94
                             1467.20  1472.56  1477.64  1500.34  1527.42
                             1539.69  1563.31  1564.06  1585.98  1618.36
                             1624.30  1655.74  1674.30  1685.87  1694.76
                             1712.05  1724.19  1750.39  1790.08  1817.31
                             1841.46  1871.12  1876.98  1879.85  1887.71
                             1896.40  1929.98  1945.98  1951.48  1962.53
                             1984.91  2029.84  2048.51  2057.45  2060.87
                             2067.63  2081.41  2096.04  2106.18  2123.43
                             2137.18  2183.58  2194.53  2227.17  2274.19
                             2308.12  2346.32  2351.11  2378.49  2383.82
                             2396.24  2513.60  4419.62  4425.43  4497.58
                             4515.53  4562.62  4571.93  4575.62  4580.18
                             4586.57  4590.55  4593.68  4596.66  4603.97
                             4607.86  4608.43  4609.70  4616.62  4620.41
                             4677.76  4685.86

 Zero-point correction=                           0.397628 (Hartree/Particle)
 Thermal correction to Energy=                    0.422845
 Thermal correction to Enthalpy=                  0.423790
 Thermal correction to Gibbs Free Energy=         0.337514
 Sum of electronic and zero-point Energies=          -1656.793553
 Sum of electronic and thermal Energies=             -1656.768336
 Sum of electronic and thermal Enthalpies=           -1656.767392
 Sum of electronic and thermal Free Energies=        -1656.853667

                     E (Thermal)             CV                S
                      KCal/Mol        Cal/Mol-Kelvin    Cal/Mol-Kelvin
 Total                  265.340             99.065            181.582
 Electronic               0.000              0.000              0.000
 Translational            0.889              2.981             44.025
 Rotational               0.889              2.981             36.833
 Vibrational            263.562             93.103            100.724
 Vibration     1          0.593              1.986              7.406
 Vibration     2          0.593              1.986              6.818
 Vibration     3          0.593              1.986              6.599
 Vibration     4          0.593              1.984              5.956
 Vibration     5          0.594              1.983              5.664
 Vibration     6          0.595              1.979              5.034
 Vibration     7          0.595              1.978              4.862
 Vibration     8          0.597              1.971              4.296
 Vibration     9          0.599              1.965              3.993
 Vibration    10          0.601              1.957              3.690
 Vibration    11          0.604              1.950              3.468
 Vibration    12          0.607              1.941              3.256
 Vibration    13          0.617              1.907              2.728
 Vibration    14          0.623              1.887              2.510
 Vibration    15          0.628              1.870              2.351
 Vibration    16          0.641              1.830              2.069
 Vibration    17          0.653              1.794              1.873
 Vibration    18          0.655              1.786              1.833
 Vibration    19          0.670              1.741              1.641
 Vibration    20          0.687              1.691              1.468
 Vibration    21          0.697              1.659              1.376
 Vibration    22          0.722              1.590              1.199
 Vibration    23          0.744              1.528              1.068
 Vibration    24          0.780              1.434              0.903
 Vibration    25          0.780              1.433              0.901
 Vibration    26          0.789              1.410              0.867
 Vibration    27          0.795              1.396              0.846
 Vibration    28          0.800              1.382              0.825
 Vibration    29          0.814              1.349              0.780
 Vibration    30          0.821              1.330              0.755
 Vibration    31          0.837              1.293              0.708
 Vibration    32          0.855              1.251              0.659
 Vibration    33          0.887              1.179              0.583
 Vibration    34          0.903              1.145              0.549
 Vibration    35          0.918              1.113              0.520
 Vibration    36          0.935              1.078              0.488
 Vibration    37          0.942              1.064              0.477
 Vibration    38          0.954              1.039              0.455

 Normal termination of Gaussian 09 at Wed Aug 31 03:38:07 2022.
