 Gaussian 09, Revision C.01,
 Gaussian 09:  EM64L-G09RevC.01 23-Sep-2011

 -------------------------
 #p opt freq b3lyp/cc-pvdz
 -------------------------

 (Enter /opt/gaussian/l101.exe)
 ---------
 Mol08.log
 ---------
 Charge =  0 Multiplicity = 1

 SCF Done:  E(RB3LYP) =  -1673.21503798     A.U. after   16 cycles
 SCF Done:  E(RB3LYP) =  -1673.22666564     A.U. after   13 cycles
 SCF Done:  E(RB3LYP) =  -1673.22738163     A.U. after   13 cycles
 SCF Done:  E(RB3LYP) =  -1673.22711121     A.U. after   13 cycles
 SCF Done:  E(RB3LYP) =  -1673.22739740     A.U. after   13 cycles
 SCF Done:  E(RB3LYP) =  -1673.22758931     A.U. after   13 cycles
 SCF Done:  E(RB3LYP) =  -1673.22761767     A.U. after   12 cycles
 SCF Done:  E(RB3LYP) =  -1673.22763321     A.U. after   12 cycles
 SCF Done:  E(RB3LYP) =  -1673.22764296     A.U. after   11 cycles
 SCF Done:  E(RB3LYP) =  -1673.22764556     A.U. after   10 cycles
 SCF Done:  E(RB3LYP) =  -1673.22764673     A.U. after    8 cycles
 SCF Done:  E(RB3LYP) =  -1673.22764798     A.U. after    8 cycles
 SCF Done:  E(RB3LYP) =  -1673.22764844     A.U. after    8 cycles
 SCF Done:  E(RB3LYP) =  -1673.22764856     A.U. after    7 cycles
 SCF Done:  E(RB3LYP) =  -1673.22764865     A.U. after    7 cycles
 SCF Done:  E(RB3LYP) =  -1673.22764867     A.U. after    6 cycles
 Optimization completed.
    -- Stationary point found.
 Normal termination of Gaussian 09 at Wed Aug 31 07:30:57 2022.

 -------------------------------------------------------------------
 #P Geom=AllCheck Guess=TCheck SCRF=Check GenChk RB3LYP/CC-pVDZ Freq
 -------------------------------------------------------------------

 Structure from the checkpoint file:  /home/scr/lqcapf-6/Gau-40399.chk
 ---------
 Mol08.log
 ---------
 Charge =  0 Multiplicity = 1

                         Standard orientation:
 ---------------------------------------------------------------------
 Center     Atomic      Atomic             Coordinates (Angstroms)
 Number     Number       Type             X           Y           Z
 ---------------------------------------------------------------------
      1          8           0        3.277934   -2.470232    0.253691
      2          6           0        2.189238   -1.912077    0.218465
      3          6           0        1.022924   -2.502350    1.031538
      4          7           0       -0.166888   -2.788468    0.247823
      5          7           0       -0.052970   -3.275612   -1.021558
      6          7           0       -1.228467   -3.516353   -1.499692
      7          6           0       -2.163571   -3.203899   -0.532756
      8          6           0       -1.486069   -2.731842    0.612006
      9          6           0       -2.169149   -2.335225    1.774402
     10          6           0       -3.555143   -2.426417    1.737776
     11          6           0       -4.247631   -2.896635    0.592368
     12          6           0       -3.567224   -3.289740   -0.551848
     13          7           0        1.967307   -0.769141   -0.508017
     14          6           0        3.082949   -0.274531   -1.347148
     15          6           0        4.023408    0.667124   -0.629748
     16          6           0        5.029470    0.248260    0.209995
     17         16           0        5.917219    1.582589    0.874822
     18          6           0        4.931311    2.727886    0.015479
     19          6           0        3.974209    2.097859   -0.735302
     20          6           0        0.788469    0.039507   -0.402729
     21          6           0       -0.160012    0.040542   -1.434728
     22          6           0       -1.289717    0.851532   -1.347297
     23          6           0       -1.507999    1.679869   -0.229609
     24          6           0       -0.544150    1.675870    0.794405
     25          6           0        0.595368    0.873772    0.706065
     26          6           0       -2.721390    2.529380   -0.135393
     27          6           0       -2.663550    3.833949    0.392269
     28          7           0       -3.713382    4.653003    0.513569
     29          6           0       -4.901027    4.194356    0.095316
     30          6           0       -5.083031    2.922793   -0.455245
     31          6           0       -3.979331    2.079356   -0.569344
     32          1           0        0.733139   -1.811143    1.835923
     33          1           0        1.419795   -3.422863    1.482012
     34          1           0       -1.647640   -1.975012    2.662421
     35          1           0       -4.130130   -2.130016    2.617796
     36          1           0       -5.337759   -2.952020    0.620491
     37          1           0       -4.086352   -3.657387   -1.438293
     38          1           0        3.626237   -1.160607   -1.697732
     39          1           0        2.634435    0.229297   -2.214515
     40          1           0        5.276398   -0.777482    0.474913
     41          1           0        5.121846    3.794806    0.111205
     42          1           0        3.253014    2.631913   -1.356022
     43          1           0       -0.014146   -0.614201   -2.295182
     44          1           0       -2.011203    0.848792   -2.166602
     45          1           0       -0.692769    2.296527    1.680092
     46          1           0        1.344912    0.891594    1.499653
     47          1           0       -1.701333    4.243891    0.717525
     48          1           0       -5.748854    4.878415    0.206853
     49          1           0       -6.074117    2.597042   -0.777544
     50          1           0       -4.093738    1.068850   -0.968174
 ---------------------------------------------------------------------

 SCF Done:  E(RB3LYP) =  -1673.22764867     A.U. after    1 cycles

 The electronic state is 1-A.
 Alpha  occ. eigenvalues --  -88.90778 -19.12107 -14.42217 -14.39812 -14.37382
 Alpha  occ. eigenvalues --  -14.35756 -14.33514 -10.30343 -10.25766 -10.24574
 Alpha  occ. eigenvalues --  -10.24240 -10.23502 -10.23218 -10.23125 -10.22171
 Alpha  occ. eigenvalues --  -10.22135 -10.21863 -10.21797 -10.21563 -10.21473
 Alpha  occ. eigenvalues --  -10.21315 -10.21241 -10.21152 -10.21133 -10.21032
 Alpha  occ. eigenvalues --  -10.20995 -10.20969 -10.20932 -10.20554 -10.19868
 Alpha  occ. eigenvalues --  -10.19512  -7.96988  -5.93303  -5.92927  -5.92638
 Alpha  occ. eigenvalues --   -1.10320  -1.05183  -0.95748  -0.95094  -0.93086
 Alpha  occ. eigenvalues --   -0.88161  -0.87566  -0.87426  -0.82291  -0.78995
 Alpha  occ. eigenvalues --   -0.78796  -0.77987  -0.76940  -0.76615  -0.75076
 Alpha  occ. eigenvalues --   -0.74034  -0.72747  -0.68456  -0.66148  -0.65782
 Alpha  occ. eigenvalues --   -0.64881  -0.63303  -0.62196  -0.61715  -0.60758
 Alpha  occ. eigenvalues --   -0.57409  -0.56914  -0.55159  -0.54239  -0.53786
 Alpha  occ. eigenvalues --   -0.53580  -0.52235  -0.50842  -0.50083  -0.49571
 Alpha  occ. eigenvalues --   -0.49114  -0.47738  -0.47573  -0.47199  -0.45817
 Alpha  occ. eigenvalues --   -0.45746  -0.45623  -0.45221  -0.44138  -0.43604
 Alpha  occ. eigenvalues --   -0.42528  -0.42064  -0.41692  -0.41174  -0.40921
 Alpha  occ. eigenvalues --   -0.39913  -0.39402  -0.38843  -0.38740  -0.38139
 Alpha  occ. eigenvalues --   -0.37671  -0.37438  -0.37319  -0.36675  -0.36517
 Alpha  occ. eigenvalues --   -0.36252  -0.34415  -0.33899  -0.32112  -0.30869
 Alpha  occ. eigenvalues --   -0.28952  -0.27797  -0.27598  -0.27092  -0.26439
 Alpha  occ. eigenvalues --   -0.26282  -0.25869  -0.25312  -0.24778  -0.24348
 Alpha  occ. eigenvalues --   -0.23445
 Alpha virt. eigenvalues --   -0.05715  -0.05252  -0.03600  -0.03111  -0.01904
 Alpha virt. eigenvalues --   -0.00640  -0.00326   0.00495   0.02319   0.03671
 Alpha virt. eigenvalues --    0.04524   0.04935   0.05786   0.06017   0.07276

 Mulliken atomic charges:
              1
     1  O   -0.265185
     2  C    0.126531
     3  C    0.185350
     4  N   -0.252452
     5  N   -0.053841
     6  N   -0.180153
     7  C    0.006613
     8  C    0.207955
     9  C    0.018929
    10  C    0.041298
    11  C    0.035808
    12  C    0.042522
    13  N   -0.235173
    14  C    0.185220
    15  C   -0.033909
    16  C   -0.129058
    17  S    0.144491
    18  C   -0.109910
    19  C    0.053485
    20  C   -0.018150
    21  C    0.090893
    22  C    0.029413
    23  C    0.038020
    24  C    0.025855
    25  C    0.081004
    26  C   -0.048940
    27  C    0.099819
    28  N   -0.172714
    29  C    0.106273
    30  C   -0.008460
    31  C    0.075554
    32  H    0.043581
    33  H    0.054073
    34  H   -0.023870
    35  H   -0.021284
    36  H   -0.024305
    37  H   -0.020270
    38  H    0.042527
    39  H    0.009190
    40  H    0.022200
    41  H    0.011657
    42  H   -0.027997
    43  H   -0.018131
    44  H   -0.028628
    45  H   -0.028882
    46  H   -0.025264
    47  H   -0.009162
    48  H   -0.001677
    49  H   -0.021451
    50  H   -0.019399
 Sum of Mulliken atomic charges =   0.00000

 Dipole moment (field-independent basis, Debye):
    X=             -3.2012    Y=              1.7082    Z=              1.7236  Tot=              4.0170
 Quadrupole moment (field-independent basis, Debye-Ang):
   XX=           -177.8301   YY=           -205.6055   ZZ=           -180.1968
   XY=             12.4864   XZ=              2.5795   YZ=            -10.7399

  Exact polarizability: 398.711 -30.838 271.504  25.302  31.094 217.304
 Approx polarizability: 611.062 -62.102 439.808  59.399  82.194 432.648

                     1                      2                      3
                     A                      A                      A
 Frequencies --    12.9631                18.3103                19.7347
 Red. masses --     6.2322                 6.5129                 8.0105
 Frc consts  --     0.0006                 0.0013                 0.0018
 IR Inten    --     0.3357                 0.3909                 0.1257

                     4                      5                      6
                     A                      A                      A
 Frequencies --    27.2152                32.3333                44.3843
 Red. masses --     4.8307                 4.8658                 5.6130
 Frc consts  --     0.0021                 0.0030                 0.0065
 IR Inten    --     0.9890                 0.0901                 3.1633

                     7                      8                      9
                     A                      A                      A
 Frequencies --    48.9673                65.4543                75.1808
 Red. masses --     5.3121                 8.4192                 4.2009
 Frc consts  --     0.0075                 0.0213                 0.0140
 IR Inten    --     0.3432                 2.1164                 0.0090

                    10                     11                     12
                     A                      A                      A
 Frequencies --    87.8383                99.4986               109.6170
 Red. masses --     6.5383                 5.6413                 7.0990
 Frc consts  --     0.0297                 0.0329                 0.0503
 IR Inten    --     0.7091                 0.1717                 1.7237

                    13                     14                     15
                     A                      A                      A
 Frequencies --   145.8079               163.6830               176.7133
 Red. masses --     5.2753                 5.2500                 6.5084
 Frc consts  --     0.0661                 0.0829                 0.1197
 IR Inten    --     1.9755                 0.8579                 0.3203

                    16                     17                     18
                     A                      A                      A
 Frequencies --   206.6535               230.2347               235.1868
 Red. masses --     4.0504                 5.3649                 4.8951
 Frc consts  --     0.1019                 0.1676                 0.1595
 IR Inten    --     3.3190                 0.0961                 3.2042

                    19                     20                     21
                     A                      A                      A
 Frequencies --   262.1454               290.9789               305.5834
 Red. masses --     6.3338                 5.9946                 5.2137
 Frc consts  --     0.2564                 0.2990                 0.2868
 IR Inten    --     1.1263                 0.6859                 0.8370

                    22                     23                     24
                     A                      A                      A
 Frequencies --   339.4187               370.6480               412.5377
 Red. masses --     3.4017                 2.8689                 3.3497
 Frc consts  --     0.2309                 0.2322                 0.3359
 IR Inten    --     1.7765                 2.6445                 2.2865

                    25                     26                     27
                     A                      A                      A
 Frequencies --   415.2503               426.2572               433.3417
 Red. masses --     3.0636                 3.2432                 4.3276
 Frc consts  --     0.3112                 0.3472                 0.4788
 IR Inten    --     1.0994                 1.2843                 2.1449

                    28                     29                     30
                     A                      A                      A
 Frequencies --   440.8004               457.0070               463.8201
 Red. masses --     2.9099                 6.2733                 4.8331
 Frc consts  --     0.3331                 0.7719                 0.6126
 IR Inten    --     3.0229                 7.4602                 0.1323

                    31                     32                     33
                     A                      A                      A
 Frequencies --   481.9450               498.4421               533.3897
 Red. masses --     5.9316                 5.4926                 4.6177
 Frc consts  --     0.8117                 0.8040                 0.7740
 IR Inten    --     1.5840                 4.4278                 5.4691

                    34                     35                     36
                     A                      A                      A
 Frequencies --   548.3262               561.9933               578.7800
 Red. masses --     5.5636                 6.5999                 4.7329
 Frc consts  --     0.9856                 1.2281                 0.9341
 IR Inten    --     1.0188                 0.3218                10.0976

                    37                     38                     39
                     A                      A                      A
 Frequencies --   584.7747               598.3736               625.5958
 Red. masses --     4.0411                 2.7850                 6.6224
 Frc consts  --     0.8142                 0.5875                 1.5270
 IR Inten    --     0.9879                50.4167                 4.3308

                    40                     41                     42
                     A                      A                      A
 Frequencies --   631.3539               650.9202               653.9477
 Red. masses --     5.5479                 5.4946                 5.2533
 Frc consts  --     1.3029                 1.3716                 1.3236
 IR Inten    --     5.4487                 9.1567                 6.1155

                    43                     44                     45
                     A                      A                      A
 Frequencies --   669.1123               683.9024               688.2043
 Red. masses --     7.5773                 4.1127                 1.6037
 Frc consts  --     1.9988                 1.1333                 0.4475
 IR Inten    --     1.4106                12.9400                 8.2156

                    46                     47                     48
                     A                      A                      A
 Frequencies --   703.8315               731.3942               742.0621
 Red. masses --     3.4348                 1.9788                 3.0524
 Frc consts  --     1.0025                 0.6237                 0.9903
 IR Inten    --     2.6455                20.1551                18.2206

                    49                     50                     51
                     A                      A                      A
 Frequencies --   761.0428               762.9335               785.9422
 Red. masses --     1.3868                 3.5008                 4.4033
 Frc consts  --     0.4733                 1.2006                 1.6026
 IR Inten    --    54.5479                18.7464                17.3504

                    52                     53                     54
                     A                      A                      A
 Frequencies --   787.8711               797.8273               806.1582
 Red. masses --     3.4467                 5.1176                 4.1465
 Frc consts  --     1.2606                 1.9193                 1.5877
 IR Inten    --     3.5800                 7.9067                11.4503

                    55                     56                     57
                     A                      A                      A
 Frequencies --   817.2254               826.0283               836.8106
 Red. masses --     2.2218                 1.8002                 3.0637
 Frc consts  --     0.8742                 0.7237                 1.2640
 IR Inten    --    10.3760                19.8820                36.7351

                    58                     59                     60
                     A                      A                      A
 Frequencies --   853.5350               857.2543               866.9732
 Red. masses --     1.2517                 3.1854                 1.5495
 Frc consts  --     0.5373                 1.3792                 0.6862
 IR Inten    --     1.5528                12.7649                 0.4213

                    61                     62                     63
                     A                      A                      A
 Frequencies --   872.4978               890.9515               896.5579
 Red. masses --     1.7604                 1.5496                 2.0252
 Frc consts  --     0.7896                 0.7247                 0.9591
 IR Inten    --    10.8543                 3.3766                 6.8957

                    64                     65                     66
                     A                      A                      A
 Frequencies --   919.7525               948.1842               951.4980
 Red. masses --     5.0871                 1.3790                 3.1502
 Frc consts  --     2.5355                 0.7305                 1.6804
 IR Inten    --     0.9647                 1.1584                 9.6297

                    67                     68                     69
                     A                      A                      A
 Frequencies --   960.4040               969.8337               973.4337
 Red. masses --     1.3638                 2.7285                 1.4046
 Frc consts  --     0.7412                 1.5121                 0.7842
 IR Inten    --     1.0166                12.7276                 0.3759

                    70                     71                     72
                     A                      A                      A
 Frequencies --   981.3445               990.3756               999.0269
 Red. masses --     1.4169                 1.3637                 1.2921
 Frc consts  --     0.8040                 0.7881                 0.7598
 IR Inten    --     0.2394                 0.2621                 0.0184

                    73                     74                     75
                     A                      A                      A
 Frequencies --  1006.2524              1016.8628              1023.0623
 Red. masses --     1.3888                 5.5377                 2.2055
 Frc consts  --     0.8285                 3.3737                 1.3600
 IR Inten    --     0.4267                27.4701                 4.9680

                    76                     77                     78
                     A                      A                      A
 Frequencies --  1024.6421              1036.7469              1046.7178
 Red. masses --     2.9360                 2.9993                 3.1593
 Frc consts  --     1.8161                 1.8994                 2.0394
 IR Inten    --     4.8031                 4.7869                 1.1001

                    79                     80                     81
                     A                      A                      A
 Frequencies --  1067.9030              1079.3236              1086.2642
 Red. masses --     4.0362                 1.9286                 4.1834
 Frc consts  --     2.7120                 1.3237                 2.9084
 IR Inten    --     9.1335                 0.9201                63.1357

                    82                     83                     84
                     A                      A                      A
 Frequencies --  1087.1460              1125.2732              1128.9500
 Red. masses --     1.1263                 1.3082                 1.8330
 Frc consts  --     0.7843                 0.9760                 1.3765
 IR Inten    --     2.9167                 5.4221                 1.1629

                    85                     86                     87
                     A                      A                      A
 Frequencies --  1137.9072              1150.8029              1164.0582
 Red. masses --     1.3687                 1.5525                 1.5608
 Frc consts  --     1.0442                 1.2114                 1.2461
 IR Inten    --     4.1569                 6.3304                12.2147

                    88                     89                     90
                     A                      A                      A
 Frequencies --  1178.0041              1191.8536              1216.3713
 Red. masses --     1.6808                 1.1252                 1.5657
 Frc consts  --     1.3743                 0.9417                 1.3649
 IR Inten    --    15.9084                 3.2344                14.3840

                    91                     92                     93
                     A                      A                      A
 Frequencies --  1220.1554              1244.3728              1263.1751
 Red. masses --     1.4539                 1.4011                 1.5690
 Frc consts  --     1.2753                 1.2782                 1.4750
 IR Inten    --     7.6694                31.4894                29.2421

                    94                     95                     96
                     A                      A                      A
 Frequencies --  1279.8006              1291.4962              1306.0521
 Red. masses --     3.7514                 3.3427                 1.7697
 Frc consts  --     3.6201                 3.2850                 1.7786
 IR Inten    --     7.7118                 2.9187                55.6646

                    97                     98                     99
                     A                      A                      A
 Frequencies --  1307.4322              1312.4698              1316.8230
 Red. masses --     1.9946                 3.1883                 1.5641
 Frc consts  --     2.0088                 3.2358                 1.5980
 IR Inten    --    28.6955                99.2841                11.2700

                   100                    101                    102
                     A                      A                      A
 Frequencies --  1327.0831              1352.4178              1355.0943
 Red. masses --     5.5431                 1.8589                 1.4772
 Frc consts  --     5.7517                 2.0033                 1.5982
 IR Inten    --    12.4487                18.2520                 2.4281

                   103                    104                    105
                     A                      A                      A
 Frequencies --  1363.9074              1379.5178              1410.5460
 Red. masses --     3.1257                 1.3652                 3.9271
 Frc consts  --     3.4258                 1.5308                 4.6036
 IR Inten    --    11.3605                 8.0834                57.7784

                   106                    107                    108
                     A                      A                      A
 Frequencies --  1422.9438              1423.8071              1430.8502
 Red. masses --     2.7664                 3.3272                 4.9832
 Frc consts  --     3.3002                 3.9740                 6.0110
 IR Inten    --    14.3553                 3.8688                16.6589

                   109                    110                    111
                     A                      A                      A
 Frequencies --  1436.1908              1445.9773              1453.1236
 Red. masses --     2.2425                 1.4173                 1.6676
 Frc consts  --     2.7252                 1.7460                 2.0747
 IR Inten    --    30.6471                70.0007                12.6748

                   112                    113                    114
                     A                      A                      A
 Frequencies --  1457.4966              1464.1029              1485.1429
 Red. masses --     1.7437                 4.8074                 3.0598
 Frc consts  --     2.1824                 6.0716                 3.9763
 IR Inten    --    21.8383                15.9067                12.8297

                   115                    116                    117
                     A                      A                      A
 Frequencies --  1502.7497              1525.0989              1545.8645
 Red. masses --     2.3300                 3.6660                 3.0435
 Frc consts  --     3.1001                 5.0239                 4.2852
 IR Inten    --    43.9080                 7.2126                44.9727

                   118                    119                    120
                     A                      A                      A
 Frequencies --  1580.5534              1600.6214              1620.3493
 Red. masses --     6.0769                 5.7607                 6.5240
 Frc consts  --     8.9444                 8.6956                10.0920
 IR Inten    --     0.7325                 2.9653                 6.5429

                   121                    122                    123
                     A                      A                      A
 Frequencies --  1633.9070              1638.0166              1656.8092
 Red. masses --     7.4645                 6.2257                 6.3179
 Frc consts  --    11.7410                 9.8419                10.2181
 IR Inten    --     1.7558                 4.8218                 8.9711

                   124                    125                    126
                     A                      A                      A
 Frequencies --  1665.1714              1747.6839              3071.7623
 Red. masses --     7.4162                10.4634                 1.0581
 Frc consts  --    12.1158                18.8300                 5.8821
 IR Inten    --     8.3378               384.4684                 8.6889

                   127                    128                    129
                     A                      A                      A
 Frequencies --  3075.9320              3125.7407              3139.0637
 Red. masses --     1.0616                 1.1075                 1.1045
 Frc consts  --     5.9177                 6.3755                 6.4123
 IR Inten    --    15.9530                 7.0819                 3.2459

                   130                    131                    132
                     A                      A                      A
 Frequencies --  3150.2388              3156.3267              3180.1211
 Red. masses --     1.0893                 1.0905                 1.0856
 Frc consts  --     6.3690                 6.4008                 6.4688
 IR Inten    --    21.5409                11.5298                 1.3095

                   133                    134                    135
                     A                      A                      A
 Frequencies --  3182.6042              3185.2982              3189.5744
 Red. masses --     1.0892                 1.0879                 1.0884
 Frc consts  --     6.5001                 6.5031                 6.5240
 IR Inten    --    14.6300                 6.6560                 1.6667

                   136                    137                    138
                     A                      A                      A
 Frequencies --  3192.6229              3200.9927              3201.3176
 Red. masses --     1.0894                 1.0968                 1.0963
 Frc consts  --     6.5425                 6.6216                 6.6197
 IR Inten    --     7.6953                15.7548                 1.5801

                   139                    140                    141
                     A                      A                      A
 Frequencies --  3202.9229              3203.7715              3209.2978
 Red. masses --     1.0910                 1.0955                 1.0953
 Frc consts  --     6.5943                 6.6250                 6.6468
 IR Inten    --     3.3464                 9.8317                 0.8037

                   142                    143                    144
                     A                      A                      A
 Frequencies --  3211.1396              3251.3245              3256.5191
 Red. masses --     1.0971                 1.0978                 1.0960
 Frc consts  --     6.6650                 6.8373                 6.8478
 IR Inten    --     7.3260                 0.4216                 6.1619

 - Thermochemistry -
 -------------------
 Temperature   298.150 Kelvin.  Pressure   1.00000 Atm.
 Atom     1 has atomic number  8 and mass  15.99491

 Molecular mass:   425.13103 amu.
 Principal axes and moments of inertia in atomic units:
                           1         2         3
     Eigenvalues --  ******************************
           X            1.00000  -0.00028  -0.00249
           Y            0.00027   0.99999  -0.00529
           Z            0.00250   0.00529   0.99998
 This molecule is an asymmetric top.
 Rotational symmetry number  1.
 Warning -- assumption of classical behavior for rotation
           may cause significant error
 Rotational temperatures (Kelvin)      0.00826     0.00486     0.00334
 Rotational constants (GHZ):           0.17210     0.10117     0.06963
 Zero-point vibrational energy    1012751.9 (Joules/Mol)
                                  242.05351 (Kcal/Mol)
 Warning -- explicit consideration of  38 degrees of freedom as
           vibrations may cause significant error
 Vibrational temperatures:     18.65    26.34    28.39    39.16    46.52
          (Kelvin)             63.86    70.45    94.17   108.17   126.38
                              143.16   157.71   209.78   235.50   254.25
                              297.33   331.26   338.38   377.17   418.65
                              439.67   488.35   533.28   593.55   597.45
                              613.29   623.48   634.21   657.53   667.33
                              693.41   717.15   767.43   788.92   808.58
                              832.73   841.36   860.93   900.09   908.38
                              936.53   940.88   962.70   983.98   990.17
                             1012.66  1052.31  1067.66  1094.97  1097.69
                             1130.79  1133.57  1147.89  1159.88  1175.80
                             1188.47  1203.98  1228.04  1233.40  1247.38
                             1255.33  1281.88  1289.95  1323.32  1364.22
                             1368.99  1381.81  1395.37  1400.55  1411.93
                             1424.93  1437.38  1447.77  1463.04  1471.96
                             1474.23  1491.65  1505.99  1536.47  1552.90
                             1562.89  1564.16  1619.02  1624.31  1637.19
                             1655.75  1674.82  1694.88  1714.81  1750.08
                             1755.53  1790.37  1817.42  1841.35  1858.17
                             1879.12  1881.10  1888.35  1894.61  1909.37
                             1945.83  1949.68  1962.36  1984.82  2029.46
                             2047.30  2048.54  2058.67  2066.36  2080.44
                             2090.72  2097.01  2106.51  2136.79  2162.12
                             2194.27  2224.15  2274.06  2302.93  2331.32
                             2350.82  2356.74  2383.78  2395.81  2514.52
                             4419.58  4425.57  4497.24  4516.41  4532.49
                             4541.24  4575.48  4579.05  4582.93  4589.08
                             4593.47  4605.51  4605.98  4608.29  4609.51
                             4617.46  4620.11  4677.92  4685.40

 Zero-point correction=                           0.385737 (Hartree/Particle)
 Thermal correction to Energy=                    0.410864
 Thermal correction to Enthalpy=                  0.411808
 Thermal correction to Gibbs Free Energy=         0.325510
 Sum of electronic and zero-point Energies=          -1672.841912
 Sum of electronic and thermal Energies=             -1672.816785
 Sum of electronic and thermal Enthalpies=           -1672.815841
 Sum of electronic and thermal Free Energies=        -1672.902139

                     E (Thermal)             CV                S
                      KCal/Mol        Cal/Mol-Kelvin    Cal/Mol-Kelvin
 Total                  257.821             98.115            181.629
 Electronic               0.000              0.000              0.000
 Translational            0.889              2.981             44.032
 Rotational               0.889              2.981             36.826
 Vibrational            256.043             92.153            100.771
 Vibration     1          0.593              1.987              7.495
 Vibration     2          0.593              1.986              6.809
 Vibration     3          0.593              1.986              6.661
 Vibration     4          0.593              1.984              6.023
 Vibration     5          0.594              1.983              5.681
 Vibration     6          0.595              1.980              5.053
 Vibration     7          0.595              1.978              4.859
 Vibration     8          0.597              1.971              4.286
 Vibration     9          0.599              1.966              4.013
 Vibration    10          0.601              1.958              3.708
 Vibration    11          0.604              1.949              3.464
 Vibration    12          0.606              1.942              3.276
 Vibration    13          0.617              1.907              2.726
 Vibration    14          0.623              1.887              2.507
 Vibration    15          0.628              1.871              2.363
 Vibration    16          0.641              1.830              2.073
 Vibration    17          0.652              1.795              1.877
 Vibration    18          0.655              1.787              1.839
 Vibration    19          0.669              1.742              1.647
 Vibration    20          0.687              1.691              1.468
 Vibration    21          0.696              1.663              1.386
 Vibration    22          0.719              1.597              1.215
 Vibration    23          0.743              1.532              1.077
 Vibration    24          0.776              1.443              0.918
 Vibration    25          0.779              1.437              0.908
 Vibration    26          0.788              1.413              0.871
 Vibration    27          0.794              1.398              0.848
 Vibration    28          0.801              1.381              0.824
 Vibration    29          0.815              1.345              0.775
 Vibration    30          0.821              1.330              0.755
 Vibration    31          0.838              1.290              0.705
 Vibration    32          0.854              1.253              0.662
 Vibration    33          0.888              1.176              0.580
 Vibration    34          0.904              1.143              0.548
 Vibration    35          0.918              1.114              0.520
 Vibration    36          0.935              1.077              0.488
 Vibration    37          0.942              1.064              0.477
 Vibration    38          0.956              1.035              0.452

 Normal termination of Gaussian 09 at Wed Aug 31 10:33:53 2022.
