 Gaussian 09, Revision C.01,
 Gaussian 09:  EM64L-G09RevC.01 23-Sep-2011

 -------------------------
 #p opt freq b3lyp/cc-pvdz
 -------------------------

 (Enter /opt/gaussian/l101.exe)
 ---------
 Mol09.log
 ---------
 Charge =  0 Multiplicity = 1

 SCF Done:  E(RB3LYP) =  -1426.11484928     A.U. after   16 cycles
 SCF Done:  E(RB3LYP) =  -1426.12431740     A.U. after   13 cycles
 SCF Done:  E(RB3LYP) =  -1426.12491446     A.U. after   12 cycles
 SCF Done:  E(RB3LYP) =  -1426.12497114     A.U. after   12 cycles
 SCF Done:  E(RB3LYP) =  -1426.12501700     A.U. after   11 cycles
 SCF Done:  E(RB3LYP) =  -1426.12505158     A.U. after   11 cycles
 SCF Done:  E(RB3LYP) =  -1426.12506264     A.U. after   11 cycles
 SCF Done:  E(RB3LYP) =  -1426.12506608     A.U. after   11 cycles
 SCF Done:  E(RB3LYP) =  -1426.12506869     A.U. after    9 cycles
 SCF Done:  E(RB3LYP) =  -1426.12506990     A.U. after   10 cycles
 SCF Done:  E(RB3LYP) =  -1426.12507048     A.U. after    9 cycles
 SCF Done:  E(RB3LYP) =  -1426.12507106     A.U. after    8 cycles
 SCF Done:  E(RB3LYP) =  -1426.12507138     A.U. after    8 cycles
 SCF Done:  E(RB3LYP) =  -1426.12507157     A.U. after    8 cycles
 SCF Done:  E(RB3LYP) =  -1426.12507164     A.U. after    8 cycles
 SCF Done:  E(RB3LYP) =  -1426.12507166     A.U. after    7 cycles
 SCF Done:  E(RB3LYP) =  -1426.12507166     A.U. after    7 cycles
 SCF Done:  E(RB3LYP) =  -1426.12507165     A.U. after    7 cycles
 Optimization completed.
    -- Stationary point found.
 Normal termination of Gaussian 09 at Wed Aug 31 12:59:58 2022.

 -------------------------------------------------------------------
 #P Geom=AllCheck Guess=TCheck SCRF=Check GenChk RB3LYP/CC-pVDZ Freq
 -------------------------------------------------------------------

 Structure from the checkpoint file:  /home/scr/lqcapf-6/Gau-50617.chk
 ---------
 Mol09.log
 ---------
 Charge =  0 Multiplicity = 1

                         Standard orientation:
 ---------------------------------------------------------------------
 Center     Atomic      Atomic             Coordinates (Angstroms)
 Number     Number       Type             X           Y           Z
 ---------------------------------------------------------------------
      1          8           0        0.184141   -1.748952   -0.088963
      2          6           0        0.070460   -0.538353   -0.269213
      3          6           0        1.036158    0.173033   -1.229560
      4          7           0        2.355484    0.322949   -0.637621
      5          7           0        2.823781    1.575014   -0.345252
      6          7           0        4.022850    1.488566    0.122846
      7          6           0        4.386479    0.156530    0.147301
      8          6           0        5.585264   -0.459246    0.551044
      9          6           0        5.658220   -1.840916    0.448475
     10          6           0        4.564264   -2.604873   -0.035059
     11          6           0        3.369977   -2.017289   -0.432477
     12          6           0        3.309409   -0.615635   -0.338932
     13          7           0       -0.876452    0.211632    0.375920
     14          6           0       -1.752265   -0.489072    1.346144
     15          6           0       -2.998712   -1.095434    0.742377
     16          6           0       -4.307009   -0.510573    0.826959
     17          6           0       -5.272238   -1.254170    0.200529
     18         16           0       -4.602091   -2.691740   -0.510431
     19          6           0       -3.011092   -2.282721    0.047342
     20          6           0       -1.102691    1.614276    0.148590
     21          6           0       -0.310266    2.568476    0.799809
     22          6           0       -0.555463    3.929518    0.600616
     23          6           0       -1.596393    4.341944   -0.236440
     24          6           0       -2.390212    3.389035   -0.882346
     25          6           0       -2.145536    2.025875   -0.693549
     26          1           0        1.112182   -0.459614   -2.126555
     27          1           0        0.711920    1.178278   -1.517071
     28          1           0        6.415927    0.140239    0.926482
     29          1           0        6.571051   -2.358371    0.750908
     30          1           0        4.662147   -3.691696   -0.085390
     31          1           0        2.510902   -2.600428   -0.761436
     32          1           0       -1.138653   -1.273969    1.806363
     33          1           0       -2.023645    0.244371    2.117291
     34          1           0       -4.515199    0.427610    1.343752
     35          1           0       -6.337755   -1.049182    0.120168
     36          1           0       -2.159223   -2.923962   -0.168414
     37          1           0        0.509785    2.240929    1.439779
     38          1           0        0.075079    4.668525    1.098994
     39          1           0       -1.786021    5.406570   -0.389610
     40          1           0       -3.201653    3.706001   -1.541175
     41          1           0       -2.756284    1.274602   -1.196389
 ---------------------------------------------------------------------

 SCF Done:  E(RB3LYP) =  -1426.12507165     A.U. after    1 cycles

 The electronic state is 1-A.
 Alpha  occ. eigenvalues --  -88.91077 -19.12383 -14.41423 -14.39095 -14.37883
 Alpha  occ. eigenvalues --  -14.34895 -10.30316 -10.25156 -10.24370 -10.23781
 Alpha  occ. eigenvalues --  -10.23090 -10.21786 -10.21297 -10.21141 -10.20877
 Alpha  occ. eigenvalues --  -10.20824 -10.20752 -10.20709 -10.20661 -10.20210
 Alpha  occ. eigenvalues --  -10.19918 -10.19831 -10.19823 -10.19820 -10.19433
 Alpha  occ. eigenvalues --   -7.97287  -5.93602  -5.93225  -5.92937  -1.09422
 Alpha  occ. eigenvalues --   -1.05338  -0.95793  -0.92342  -0.88374  -0.86472
 Alpha  occ. eigenvalues --   -0.86313  -0.78462  -0.77400  -0.76646  -0.76388
 Alpha  occ. eigenvalues --   -0.75301  -0.73974  -0.73023  -0.68582  -0.64776
 Alpha  occ. eigenvalues --   -0.64027  -0.62529  -0.62257  -0.59760  -0.57354
 Alpha  occ. eigenvalues --   -0.56912  -0.54940  -0.53951  -0.52575  -0.52385
 Alpha  occ. eigenvalues --   -0.51044  -0.50427  -0.48916  -0.47182  -0.46849
 Alpha  occ. eigenvalues --   -0.46496  -0.45355  -0.44593  -0.44571  -0.43655
 Alpha  occ. eigenvalues --   -0.43007  -0.42402  -0.42072  -0.41550  -0.39945
 Alpha  occ. eigenvalues --   -0.38702  -0.38217  -0.38179  -0.37579  -0.37485
 Alpha  occ. eigenvalues --   -0.36712  -0.36309  -0.36147  -0.35504  -0.34690
 Alpha  occ. eigenvalues --   -0.33139  -0.31414  -0.28152  -0.27391  -0.27124
 Alpha  occ. eigenvalues --   -0.26604  -0.25911  -0.25414  -0.24963  -0.23985
 Alpha  occ. eigenvalues --   -0.23185
 Alpha virt. eigenvalues --   -0.04349  -0.03230  -0.02709  -0.01902  -0.00275
 Alpha virt. eigenvalues --    0.01022   0.03373   0.03489   0.04502   0.05316
 Alpha virt. eigenvalues --    0.06857   0.07335   0.08354   0.09185   0.09655

 Mulliken atomic charges:
              1
     1  O   -0.284217
     2  C    0.142415
     3  C    0.182938
     4  N   -0.247658
     5  N   -0.064800
     6  N   -0.182987
     7  C    0.010589
     8  C    0.042058
     9  C    0.038834
    10  C    0.041746
    11  C    0.036839
    12  C    0.185272
    13  N   -0.234166
    14  C    0.189528
    15  C   -0.035416
    16  C    0.047708
    17  C   -0.108644
    18  S    0.147424
    19  C   -0.128017
    20  C   -0.036585
    21  C    0.094328
    22  C    0.049758
    23  C    0.040717
    24  C    0.046148
    25  C    0.067880
    26  H    0.044984
    27  H    0.054320
    28  H   -0.023626
    29  H   -0.027271
    30  H   -0.023901
    31  H   -0.015810
    32  H    0.043003
    33  H    0.010983
    34  H   -0.027323
    35  H    0.012520
    36  H    0.021904
    37  H   -0.030679
    38  H   -0.014401
    39  H   -0.022425
    40  H   -0.020420
    41  H   -0.023552
 Sum of Mulliken atomic charges =   0.00000

 Dipole moment (field-independent basis, Debye):
    X=             -2.9519    Y=              0.6003    Z=             -0.3923  Tot=              3.0378
 Quadrupole moment (field-independent basis, Debye-Ang):
   XX=           -146.1118   YY=           -147.1906   ZZ=           -148.2596
   XY=            -15.9836   XZ=              2.6164   YZ=              1.7112

  Exact polarizability: 296.810 -17.363 281.015  42.816  14.697 141.042
 Approx polarizability: 433.702 -25.287 489.843  87.855  41.696 251.562

                     1                      2                      3
                     A                      A                      A
 Frequencies --    11.4590                19.0246                28.6209
 Red. masses --     6.7657                 5.8347                 7.3476
 Frc consts  --     0.0005                 0.0012                 0.0035
 IR Inten    --     1.3212                 0.3064                 0.2792

                     4                      5                      6
                     A                      A                      A
 Frequencies --    30.7761                42.2882                53.7346
 Red. masses --     4.2517                 5.6054                 4.5670
 Frc consts  --     0.0024                 0.0059                 0.0078
 IR Inten    --     0.2092                 2.9159                 0.3197

                     7                      8                      9
                     A                      A                      A
 Frequencies --    58.1206                85.5966               100.4516
 Red. masses --     7.0234                 5.4262                 7.2346
 Frc consts  --     0.0140                 0.0234                 0.0430
 IR Inten    --     0.7731                 0.2997                 6.7737

                    10                     11                     12
                     A                      A                      A
 Frequencies --   147.0711               167.6096               193.3784
 Red. masses --     6.1970                 5.5805                 5.7945
 Frc consts  --     0.0790                 0.0924                 0.1277
 IR Inten    --     1.2274                 1.0245                 1.0615

                    13                     14                     15
                     A                      A                      A
 Frequencies --   230.3018               235.8266               266.9856
 Red. masses --     5.9061                 5.4013                 5.5845
 Frc consts  --     0.1846                 0.1770                 0.2345
 IR Inten    --     0.5042                 2.6844                 1.6054

                    16                     17                     18
                     A                      A                      A
 Frequencies --   300.9045               327.2522               367.1506
 Red. masses --     3.9586                 4.9424                 2.4639
 Frc consts  --     0.2112                 0.3119                 0.1957
 IR Inten    --     2.7951                 0.3324                 0.5388

                    19                     20                     21
                     A                      A                      A
 Frequencies --   401.8020               423.5320               425.8222
 Red. masses --     3.5000                 2.9291                 3.8686
 Frc consts  --     0.3329                 0.3096                 0.4133
 IR Inten    --     8.6161                 0.7422                 8.1897

                    22                     23                     24
                     A                      A                      A
 Frequencies --   444.3597               461.2991               472.5598
 Red. masses --     3.0037                 4.8816                 5.7344
 Frc consts  --     0.3494                 0.6120                 0.7545
 IR Inten    --     3.9230                 0.8980                 0.8157

                    25                     26                     27
                     A                      A                      A
 Frequencies --   490.4756               528.1602               560.1708
 Red. masses --     4.5853                 6.6348                 4.3254
 Frc consts  --     0.6499                 1.0905                 0.7997
 IR Inten    --     2.5773                 1.0558                14.6621

                    28                     29                     30
                     A                      A                      A
 Frequencies --   571.9864               582.5651               588.7924
 Red. masses --     3.7994                 4.1815                 5.2120
 Frc consts  --     0.7324                 0.8361                 1.0646
 IR Inten    --    15.7693                 5.8073                12.0328

                    31                     32                     33
                     A                      A                      A
 Frequencies --   620.6233               630.1499               656.9207
 Red. masses --     5.1483                 6.2655                 4.7066
 Frc consts  --     1.1683                 1.4659                 1.1967
 IR Inten    --     9.7736                 1.3162                11.7135

                    34                     35                     36
                     A                      A                      A
 Frequencies --   669.4519               687.6103               692.6452
 Red. masses --     8.0242                 1.5313                 3.7629
 Frc consts  --     2.1188                 0.4266                 1.0637
 IR Inten    --     3.3871                17.6549                 8.9672

                    37                     38                     39
                     A                      A                      A
 Frequencies --   713.0144               715.9802               759.0513
 Red. masses --     2.9024                 1.7888                 3.1618
 Frc consts  --     0.8694                 0.5403                 1.0733
 IR Inten    --     4.1436                46.7723                20.7028

                    40                     41                     42
                     A                      A                      A
 Frequencies --   766.6587               790.5825               792.3087
 Red. masses --     1.4389                 3.1860                 1.9936
 Frc consts  --     0.4983                 1.1732                 0.7373
 IR Inten    --    46.6443                 7.0113                 4.2562

                    43                     44                     45
                     A                      A                      A
 Frequencies --   794.3098               816.8962               835.3590
 Red. masses --     4.5951                 2.2050                 4.3116
 Frc consts  --     1.7081                 0.8669                 1.7727
 IR Inten    --    18.7607                24.3843                19.9808

                    46                     47                     48
                     A                      A                      A
 Frequencies --   841.6622               855.4964               858.3950
 Red. masses --     4.4086                 1.3950                 2.6176
 Frc consts  --     1.8400                 0.6015                 1.1364
 IR Inten    --    19.4161                 5.1756                 9.0759

                    49                     50                     51
                     A                      A                      A
 Frequencies --   877.4708               891.7492               898.7844
 Red. masses --     1.5102                 1.4213                 2.2486
 Frc consts  --     0.6851                 0.6659                 1.0702
 IR Inten    --     1.9014                 2.2724                 8.1458

                    52                     53                     54
                     A                      A                      A
 Frequencies --   919.0669               938.9092               948.2422
 Red. masses --     4.0938                 1.4827                 3.4601
 Frc consts  --     2.0374                 0.7701                 1.8331
 IR Inten    --     3.4966                 0.9210                21.9104

                    55                     56                     57
                     A                      A                      A
 Frequencies --   955.6994               966.4460               990.0421
 Red. masses --     3.2228                 1.3595                 1.3789
 Frc consts  --     1.7343                 0.7482                 0.7963
 IR Inten    --    16.6643                 2.2978                 0.3519

                    58                     59                     60
                     A                      A                      A
 Frequencies --  1000.9582              1014.8528              1017.2565
 Red. masses --     1.2937                 1.3828                 4.7998
 Frc consts  --     0.7637                 0.8391                 2.9264
 IR Inten    --     0.9210                 0.1204                 3.6903

                    61                     62                     63
                     A                      A                      A
 Frequencies --  1023.6185              1027.3198              1037.5744
 Red. masses --     1.9978                 2.9612                 4.0187
 Frc consts  --     1.2333                 1.8413                 2.5490
 IR Inten    --    16.0034                 7.2484                49.3400

                    64                     65                     66
                     A                      A                      A
 Frequencies --  1053.8676              1087.6065              1096.3561
 Red. masses --     1.8614                 1.1140                 1.5366
 Frc consts  --     1.2181                 0.7764                 1.0882
 IR Inten    --    14.0901                 5.1490                11.8314

                    67                     68                     69
                     A                      A                      A
 Frequencies --  1102.7556              1121.0146              1141.7015
 Red. masses --     2.6876                 2.8675                 1.3724
 Frc consts  --     1.9256                 2.1231                 1.0540
 IR Inten    --    12.2790                 2.2029                 1.7752

                    70                     71                     72
                     A                      A                      A
 Frequencies --  1163.9369              1172.0292              1174.7695
 Red. masses --     1.5797                 1.0868                 1.4173
 Frc consts  --     1.2609                 0.8796                 1.1524
 IR Inten    --     8.8555                 0.0467                 8.0767

                    73                     74                     75
                     A                      A                      A
 Frequencies --  1186.4004              1213.3581              1259.9375
 Red. masses --     1.1203                 1.5938                 1.6338
 Frc consts  --     0.9291                 1.3825                 1.5281
 IR Inten    --     0.2414                12.5669                17.7147

                    76                     77                     78
                     A                      A                      A
 Frequencies --  1262.2939              1283.1081              1306.6376
 Red. masses --     2.0108                 3.5557                 1.7456
 Frc consts  --     1.8877                 3.4490                 1.7559
 IR Inten    --    91.1902                52.8011                95.7700

                    79                     80                     81
                     A                      A                      A
 Frequencies --  1319.7695              1324.9617              1351.3943
 Red. masses --     1.6109                 1.6417                 3.5223
 Frc consts  --     1.6532                 1.6981                 3.7900
 IR Inten    --     6.7589                30.8193                 0.4911

                    82                     83                     84
                     A                      A                      A
 Frequencies --  1352.7006              1370.4186              1378.3851
 Red. masses --     2.0632                 2.3566                 1.5904
 Frc consts  --     2.2243                 2.6076                 1.7803
 IR Inten    --     7.3404                22.4279                13.2065

                    85                     86                     87
                     A                      A                      A
 Frequencies --  1413.0852              1418.9891              1430.4902
 Red. masses --     3.5968                 2.8462                 7.2616
 Frc consts  --     4.2316                 3.3766                 8.7549
 IR Inten    --    17.4801                20.2441                 2.3278

                    88                     89                     90
                     A                      A                      A
 Frequencies --  1439.2043              1447.4846              1452.0946
 Red. masses --     1.6397                 1.1711                 1.8360
 Frc consts  --     2.0011                 1.4457                 2.2810
 IR Inten    --    52.5441                16.6736                87.4360

                    91                     92                     93
                     A                      A                      A
 Frequencies --  1463.3508              1477.2704              1485.1244
 Red. masses --     4.9340                 2.3352                 3.2483
 Frc consts  --     6.2250                 3.0026                 4.2212
 IR Inten    --    23.3619                 4.1507                25.9275

                    94                     95                     96
                     A                      A                      A
 Frequencies --  1525.1097              1526.1132              1579.4103
 Red. masses --     2.5514                 3.5508                 6.0803
 Frc consts  --     3.4964                 4.8724                 8.9365
 IR Inten    --    48.3515                13.5606                 0.4336

                    97                     98                     99
                     A                      A                      A
 Frequencies --  1633.7728              1634.0580              1647.6924
 Red. masses --     6.1884                 7.3934                 6.0619
 Frc consts  --     9.7322                11.6313                 9.6964
 IR Inten    --     2.6329                 3.7840                25.8506

                   100                    101                    102
                     A                      A                      A
 Frequencies --  1664.7875              1725.4379              3072.0559
 Red. masses --     7.3207                10.3569                 1.0660
 Frc consts  --    11.9542                18.1669                 5.9272
 IR Inten    --    12.3566               272.7701                13.9332

                   103                    104                    105
                     A                      A                      A
 Frequencies --  3076.4384              3135.2814              3164.9966
 Red. masses --     1.0600                 1.1064                 1.1000
 Frc consts  --     5.9106                 6.4077                 6.4919
 IR Inten    --    16.2322                 2.7707                 1.1956

                   106                    107                    108
                     A                      A                      A
 Frequencies --  3178.2371              3179.2755              3189.4769
 Red. masses --     1.0852                 1.0863                 1.0894
 Frc consts  --     6.4588                 6.4695                 6.5292
 IR Inten    --     0.4541                 4.2772                 6.7739

                   109                    110                    111
                     A                      A                      A
 Frequencies --  3193.9073              3199.8041              3203.5733
 Red. masses --     1.0912                 1.0935                 1.0910
 Frc consts  --     6.5581                 6.5965                 6.5969
 IR Inten    --    13.7695                21.0115                 2.4855

                   112                    113                    114
                     A                      A                      A
 Frequencies --  3207.9514              3210.2155              3214.0193
 Red. masses --     1.0959                 1.0961                 1.0967
 Frc consts  --     6.6449                 6.6555                 6.6747
 IR Inten    --     6.6901                12.0617                 1.4658

                   115                    116                    117
                     A                      A                      A
 Frequencies --  3229.2479              3251.5421              3257.1855
 Red. masses --     1.0946                 1.0978                 1.0958
 Frc consts  --     6.7253                 6.8385                 6.8497
 IR Inten    --     2.0569                 0.4528                 5.5487

 - Thermochemistry -
 -------------------
 Temperature   298.150 Kelvin.  Pressure   1.00000 Atm.
 Atom     1 has atomic number  8 and mass  15.99491

 Molecular mass:   348.10448 amu.
 Principal axes and moments of inertia in atomic units:
                           1         2         3
     Eigenvalues --  5676.74661********************
           X            0.99979  -0.02067   0.00059
           Y            0.02067   0.99979  -0.00147
           Z           -0.00056   0.00148   1.00000
 This molecule is an asymmetric top.
 Rotational symmetry number  1.
 Warning -- assumption of classical behavior for rotation
           may cause significant error
 Rotational temperatures (Kelvin)      0.01526     0.00613     0.00460
 Rotational constants (GHZ):           0.31792     0.12779     0.09593
 Zero-point vibrational energy     833039.1 (Joules/Mol)
                                  199.10113 (Kcal/Mol)
 Warning -- explicit consideration of  31 degrees of freedom as
           vibrations may cause significant error
 Vibrational temperatures:     16.49    27.37    41.18    44.28    60.84
          (Kelvin)             77.31    83.62   123.15   144.53   211.60
                              241.15   278.23   331.35   339.30   384.13
                              432.93   470.84   528.25   578.10   609.37
                              612.66   639.33   663.71   679.91   705.68
                              759.90   805.96   822.96   838.18   847.14
                              892.94   906.64   945.16   963.19   989.32
                              996.56  1025.87  1030.13  1092.10  1103.05
                             1137.47  1139.95  1142.83  1175.33  1201.89
                             1210.96  1230.87  1235.04  1262.48  1283.03
                             1293.15  1322.33  1350.88  1364.31  1375.04
                             1390.50  1424.45  1440.15  1460.14  1463.60
                             1472.76  1478.08  1492.84  1516.28  1564.82
                             1577.41  1586.62  1612.89  1642.65  1674.64
                             1686.29  1690.23  1706.96  1745.75  1812.77
                             1816.16  1846.10  1879.96  1898.85  1906.32
                             1944.35  1946.23  1971.72  1983.19  2033.11
                             2041.61  2058.15  2070.69  2082.60  2089.24
                             2105.43  2125.46  2136.76  2194.29  2195.73
                             2272.42  2350.63  2351.04  2370.66  2395.25
                             2482.52  4420.00  4426.30  4510.96  4553.72
                             4572.77  4574.26  4588.94  4595.31  4603.80
                             4609.22  4615.52  4618.78  4624.25  4646.16
                             4678.24  4686.36

 Zero-point correction=                           0.317288 (Hartree/Particle)
 Thermal correction to Energy=                    0.337753
 Thermal correction to Enthalpy=                  0.338697
 Thermal correction to Gibbs Free Energy=         0.263162
 Sum of electronic and zero-point Energies=          -1425.807784
 Sum of electronic and thermal Energies=             -1425.787319
 Sum of electronic and thermal Enthalpies=           -1425.786374
 Sum of electronic and thermal Free Energies=        -1425.861909

                     E (Thermal)             CV                S
                      KCal/Mol        Cal/Mol-Kelvin    Cal/Mol-Kelvin
 Total                  211.943             79.691            158.976
 Electronic               0.000              0.000              0.000
 Translational            0.889              2.981             43.436
 Rotational               0.889              2.981             35.666
 Vibrational            210.166             73.729             79.875
 Vibration     1          0.593              1.987              7.740
 Vibration     2          0.593              1.986              6.733
 Vibration     3          0.593              1.984              5.923
 Vibration     4          0.594              1.984              5.779
 Vibration     5          0.595              1.980              5.149
 Vibration     6          0.596              1.976              4.675
 Vibration     7          0.596              1.974              4.520
 Vibration     8          0.601              1.959              3.758
 Vibration     9          0.604              1.949              3.446
 Vibration    10          0.617              1.906              2.710
 Vibration    11          0.624              1.882              2.462
 Vibration    12          0.635              1.849              2.195
 Vibration    13          0.652              1.795              1.877
 Vibration    14          0.655              1.786              1.834
 Vibration    15          0.672              1.734              1.616
 Vibration    16          0.693              1.672              1.412
 Vibration    17          0.711              1.621              1.274
 Vibration    18          0.740              1.540              1.092
 Vibration    19          0.767              1.466              0.956
 Vibration    20          0.786              1.419              0.880
 Vibration    21          0.788              1.414              0.872
 Vibration    22          0.804              1.373              0.813
 Vibration    23          0.819              1.336              0.762
 Vibration    24          0.829              1.311              0.730
 Vibration    25          0.846              1.271              0.682
 Vibration    26          0.883              1.188              0.591
 Vibration    27          0.916              1.117              0.523
 Vibration    28          0.928              1.092              0.500
 Vibration    29          0.939              1.069              0.481
 Vibration    30          0.946              1.056              0.469
 Vibration    31          0.981              0.988              0.416

 Optimization completed.
    -- Stationary point found.
 Normal termination of Gaussian 09 at Wed Aug 31 14:08:15 2022.
