 Gaussian 09, Revision C.01,
 Gaussian 09:  EM64L-G09RevC.01 23-Sep-2011

 -------------------------
 #p opt freq b3lyp/cc-pvdz
 -------------------------

 (Enter /opt/gaussian/l101.exe)
 ---------
 Mol01.log
 ---------
 Charge =  0 Multiplicity = 1

 SCF Done:  E(RB3LYP) =  -1711.52589483     A.U. after   15 cycles
 SCF Done:  E(RB3LYP) =  -1711.53755717     A.U. after   13 cycles
 SCF Done:  E(RB3LYP) =  -1711.53836999     A.U. after   13 cycles
 SCF Done:  E(RB3LYP) =  -1711.53849977     A.U. after   12 cycles
 SCF Done:  E(RB3LYP) =  -1711.53851992     A.U. after   13 cycles
 SCF Done:  E(RB3LYP) =  -1711.53864505     A.U. after   11 cycles
 SCF Done:  E(RB3LYP) =  -1711.53867136     A.U. after   11 cycles
 SCF Done:  E(RB3LYP) =  -1711.53868397     A.U. after   11 cycles
 SCF Done:  E(RB3LYP) =  -1711.53868894     A.U. after   11 cycles
 SCF Done:  E(RB3LYP) =  -1711.53869337     A.U. after   11 cycles
 SCF Done:  E(RB3LYP) =  -1711.53869630     A.U. after   11 cycles
 SCF Done:  E(RB3LYP) =  -1711.53869746     A.U. after   10 cycles
 SCF Done:  E(RB3LYP) =  -1711.53869789     A.U. after    8 cycles
 SCF Done:  E(RB3LYP) =  -1711.53869811     A.U. after    7 cycles
 SCF Done:  E(RB3LYP) =  -1711.53869821     A.U. after    7 cycles
 SCF Done:  E(RB3LYP) =  -1711.53869828     A.U. after    7 cycles
 SCF Done:  E(RB3LYP) =  -1711.53869827     A.U. after    7 cycles
 SCF Done:  E(RB3LYP) =  -1711.53869829     A.U. after    6 cycles
 Optimization completed.
    -- Stationary point found.
 Normal termination of Gaussian 09 at Tue Aug 30 18:29:39 2022.

 -------------------------------------------------------------------
 #P Geom=AllCheck Guess=TCheck SCRF=Check GenChk RB3LYP/CC-pVDZ Freq
 -------------------------------------------------------------------

 Structure from the checkpoint file:  /home/scr/lqcapf-6/Gau-22907.chk
 ---------
 Mol01.log
 ---------
 Charge =  0 Multiplicity = 1

                         Standard orientation:
 ---------------------------------------------------------------------
 Center     Atomic      Atomic             Coordinates (Angstroms)
 Number     Number       Type             X           Y           Z
 ---------------------------------------------------------------------
      1          8           0        1.208354   -1.488863   -0.177291
      2          6           0        1.344020   -0.413566   -0.731706
      3          6           0        2.721327    0.036050   -1.261775
      4          7           0        3.735951   -0.963053   -1.044993
      5          7           0        4.232189   -1.654884   -2.116253
      6          7           0        5.125818   -2.490620   -1.712964
      7          6           0        5.244296   -2.373977   -0.341250
      8          6           0        6.080025   -3.046426    0.567670
      9          6           0        5.979819   -2.697702    1.907259
     10          6           0        5.067546   -1.703398    2.344202
     11          6           0        4.231437   -1.032104    1.460930
     12          6           0        4.339632   -1.387266    0.106300
     13          7           0        0.302433    0.479004   -0.931903
     14          6           0        0.515117    1.806834   -1.520916
     15          6           0        1.031911    2.858651   -0.558613
     16          6           0        1.586485    4.106942   -1.001983
     17          6           0        1.955647    4.927876    0.029740
     18         16           0        1.636418    4.196604    1.572176
     19          6           0        0.998019    2.770506    0.811490
     20          6           0       -1.028467    0.118975   -0.516616
     21          6           0       -2.095752    0.222988   -1.416613
     22          6           0       -3.403165   -0.089211   -1.041629
     23          6           0       -3.660402   -0.543603    0.262843
     24          6           0       -2.585666   -0.671285    1.160854
     25          6           0       -1.288042   -0.343860    0.780452
     26          7           0       -4.944191   -0.890067    0.726351
     27          6           0       -6.152158   -0.830416    0.060977
     28          8           0       -6.275674   -0.446267   -1.096052
     29          6           0       -7.323473   -1.279810    0.880889
     30          6           0       -8.454231   -1.976268    0.137377
     31          6           0       -8.649026   -0.576255    0.625771
     32          1           0        2.684833    0.191535   -2.349155
     33          1           0        3.018079    0.987504   -0.791928
     34          1           0        6.776117   -3.809994    0.217315
     35          1           0        6.611016   -3.196626    2.645469
     36          1           0        5.018587   -1.463320    3.408729
     37          1           0        3.522471   -0.279439    1.807178
     38          1           0        1.193265    1.733624   -2.384794
     39          1           0       -0.448147    2.140736   -1.931754
     40          1           0        1.706437    4.377031   -2.052545
     41          1           0        2.405151    5.917307   -0.024545
     42          1           0        0.618441    1.953098    1.419348
     43          1           0       -1.910859    0.544980   -2.443652
     44          1           0       -4.224519    0.000827   -1.747053
     45          1           0       -2.767797   -1.033522    2.176780
     46          1           0       -0.470519   -0.470588    1.488530
     47          1           0       -4.978911   -1.224992    1.681760
     48          1           0       -7.120685   -1.608881    1.903547
     49          1           0       -8.296411   -2.114421   -0.933892
     50          1           0       -8.961005   -2.792392    0.656445
     51          1           0       -9.293545   -0.402742    1.489943
     52          1           0       -8.620940    0.220943   -0.119374
 ---------------------------------------------------------------------

 SCF Done:  E(RB3LYP) =  -1711.53869829     A.U. after    1 cycles

 The electronic state is 1-A.
 Alpha  occ. eigenvalues --  -88.92079 -19.12133 -19.11810 -14.40812 -14.38640
 Alpha  occ. eigenvalues --  -14.38127 -14.38099 -14.34423 -10.30307 -10.30079
 Alpha  occ. eigenvalues --  -10.25556 -10.25364 -10.24621 -10.23639 -10.22920
 Alpha  occ. eigenvalues --  -10.22863 -10.22616 -10.21677 -10.21509 -10.20880
 Alpha  occ. eigenvalues --  -10.20794 -10.20575 -10.20541 -10.20433 -10.20308
 Alpha  occ. eigenvalues --  -10.20292 -10.20188 -10.19833 -10.19630 -10.19422
 Alpha  occ. eigenvalues --  -10.19234  -7.98285  -5.94608  -5.94229  -5.93921
 Alpha  occ. eigenvalues --   -1.09083  -1.05364  -1.04823  -0.96119  -0.95183
 Alpha  occ. eigenvalues --   -0.92129  -0.89463  -0.87359  -0.86169  -0.85660
 Alpha  occ. eigenvalues --   -0.78597  -0.77810  -0.76897  -0.76147  -0.75499
 Alpha  occ. eigenvalues --   -0.74254  -0.73743  -0.70048  -0.68097  -0.64636
 Alpha  occ. eigenvalues --   -0.63585  -0.63182  -0.61949  -0.61057  -0.59594
 Alpha  occ. eigenvalues --   -0.58588  -0.57923  -0.56621  -0.55807  -0.54453
 Alpha  occ. eigenvalues --   -0.53377  -0.52862  -0.52507  -0.52078  -0.51349
 Alpha  occ. eigenvalues --   -0.50192  -0.48023  -0.47359  -0.46707  -0.46432
 Alpha  occ. eigenvalues --   -0.45857  -0.45026  -0.44435  -0.44308  -0.44049
 Alpha  occ. eigenvalues --   -0.43876  -0.43410  -0.42967  -0.42370  -0.41944
 Alpha  occ. eigenvalues --   -0.41165  -0.40233  -0.39771  -0.39341  -0.38804
 Alpha  occ. eigenvalues --   -0.38390  -0.38171  -0.37428  -0.37051  -0.36432
 Alpha  occ. eigenvalues --   -0.36137  -0.35759  -0.35317  -0.32717  -0.32569
 Alpha  occ. eigenvalues --   -0.31899  -0.30829  -0.30092  -0.27610  -0.27224
 Alpha  occ. eigenvalues --   -0.26430  -0.26355  -0.26252  -0.26105  -0.25203
 Alpha  occ. eigenvalues --   -0.24662  -0.23231  -0.22104
 Alpha virt. eigenvalues --   -0.03943  -0.03191  -0.02926  -0.01949   0.00701
 Alpha virt. eigenvalues --    0.01082   0.01972   0.02692   0.03080   0.03612
 Alpha virt. eigenvalues --    0.03864   0.04724   0.05918   0.06484   0.07031

 Mulliken atomic charges:
              1
     1  O   -0.240088
     2  C    0.130122
     3  C    0.122558
     4  N   -0.226794
     5  N   -0.059586
     6  N   -0.182782
     7  C    0.010869
     8  C    0.044536
     9  C    0.037351
    10  C    0.039168
    11  C    0.029373
    12  C    0.214432
    13  N   -0.287985
    14  C    0.153151
    15  C   -0.029363
    16  C    0.049095
    17  C   -0.101278
    18  S    0.155865
    19  C   -0.136335
    20  C    0.078775
    21  C    0.055882
    22  C    0.044849
    23  C    0.062206
    24  C    0.017765
    25  C    0.076160
    26  N   -0.120549
    27  C    0.231744
    28  O   -0.272556
    29  C   -0.136935
    30  C    0.023198
    31  C    0.022285
    32  H    0.061347
    33  H    0.059341
    34  H   -0.022789
    35  H   -0.028175
    36  H   -0.027240
    37  H   -0.032815
    38  H    0.031021
    39  H    0.049878
    40  H   -0.027903
    41  H    0.018081
    42  H    0.007395
    43  H   -0.026229
    44  H   -0.001244
    45  H   -0.034368
    46  H   -0.023011
    47  H    0.080480
    48  H   -0.022219
    49  H    0.041554
    50  H    0.025824
    51  H    0.025282
    52  H    0.040657
 Sum of Mulliken atomic charges =   0.00000

 Dipole moment (field-independent basis, Debye):
    X=             -3.1672    Y=              4.0906    Z=              4.2098  Tot=              6.6698
 Quadrupole moment (field-independent basis, Debye-Ang):
   XX=           -185.3258   YY=           -184.5425   ZZ=           -178.1105
   XY=             21.6473   XZ=             -5.3705   YZ=            -17.1295

  Exact polarizability: 383.800  -2.969 250.857  11.442 -14.724 283.217
 Approx polarizability: 478.621 -20.485 390.871  26.045 -32.308 552.193

                     1                      2                      3
                     A                      A                      A
 Frequencies --    11.2554                13.5329                19.3420
 Red. masses --     5.9553                 6.9507                 5.2388
 Frc consts  --     0.0004                 0.0007                 0.0012
 IR Inten    --     0.1295                 0.7819                 0.7001

                     4                      5                      6
                     A                      A                      A
 Frequencies --    22.1499                27.0518                32.1129
 Red. masses --     5.7008                 5.8307                 4.0426
 Frc consts  --     0.0016                 0.0025                 0.0025
 IR Inten    --     0.0953                 0.8317                 1.4485

                     7                      8                      9
                     A                      A                      A
 Frequencies --    40.0260                58.3947                63.9434
 Red. masses --     5.3304                 5.3859                 4.1288
 Frc consts  --     0.0050                 0.0108                 0.0099
 IR Inten    --     3.3260                 0.6078                 0.9604

                    10                     11                     12
                     A                      A                      A
 Frequencies --    69.2958                74.9531                89.2667
 Red. masses --     5.6262                 7.4504                 5.2425
 Frc consts  --     0.0159                 0.0247                 0.0246
 IR Inten    --     4.1077                 1.1354                 1.6901

                    13                     14                     15
                     A                      A                      A
 Frequencies --   114.0329               158.9547               174.2549
 Red. masses --     5.4675                 5.3106                 6.2440
 Frc consts  --     0.0419                 0.0791                 0.1117
 IR Inten    --     0.7180                 1.5372                 0.6534

                    16                     17                     18
                     A                      A                      A
 Frequencies --   183.1092               202.8753               219.6468
 Red. masses --     6.3385                 5.6896                 4.5484
 Frc consts  --     0.1252                 0.1380                 0.1293
 IR Inten    --     1.2670                 1.4692                 2.0805

                    19                     20                     21
                     A                      A                      A
 Frequencies --   232.6856               248.9492               272.4258
 Red. masses --     5.8996                 3.1426                 3.6869
 Frc consts  --     0.1882                 0.1148                 0.1612
 IR Inten    --     0.3626                 4.6072                 5.7945

                    22                     23                     24
                     A                      A                      A
 Frequencies --   280.9683               291.4375               335.4391
 Red. masses --     3.2799                 3.3312                 6.8457
 Frc consts  --     0.1526                 0.1667                 0.4538
 IR Inten    --     3.3124                 2.5389                 7.3102

                    25                     26                     27
                     A                      A                      A
 Frequencies --   346.9146               351.9611               357.7059
 Red. masses --     6.6265                 6.5439                 4.3488
 Frc consts  --     0.4699                 0.4776                 0.3278
 IR Inten    --     6.2964                 6.7627                10.6057

                    28                     29                     30
                     A                      A                      A
 Frequencies --   417.6491               424.3537               433.7239
 Red. masses --     3.8931                 3.2729                 4.5964
 Frc consts  --     0.4001                 0.3472                 0.5094
 IR Inten    --     4.9084                 0.4332                 2.4254

                    31                     32                     33
                     A                      A                      A
 Frequencies --   440.0609               457.6662               477.2346
 Red. masses --     2.9023                 4.6593                 4.3275
 Frc consts  --     0.3311                 0.5750                 0.5807
 IR Inten    --     2.1080                 0.0790                 1.4118

                    34                     35                     36
                     A                      A                      A
 Frequencies --   530.7496               544.7289               550.0881
 Red. masses --     4.5208                 2.0569                 1.3801
 Frc consts  --     0.7503                 0.3596                 0.2460
 IR Inten    --     2.6794                 4.1267                51.5637

                    37                     38                     39
                     A                      A                      A
 Frequencies --   559.6800               576.4154               585.4312
 Red. masses --     5.8259                 4.2998                 4.0384
 Frc consts  --     1.0752                 0.8417                 0.8155
 IR Inten    --     1.5249                 2.7689                 0.5878

                    40                     41                     42
                     A                      A                      A
 Frequencies --   590.9479               603.8654               625.5429
 Red. masses --     5.8576                 3.3276                 5.7721
 Frc consts  --     1.2052                 0.7149                 1.3307
 IR Inten    --    13.1154                 6.5957                12.3945

                    43                     44                     45
                     A                      A                      A
 Frequencies --   645.3290               668.5053               680.3862
 Red. masses --     6.2359                 6.5556                 5.1146
 Frc consts  --     1.5301                 1.7261                 1.3950
 IR Inten    --     0.4927                 7.1154                11.9251

                    46                     47                     48
                     A                      A                      A
 Frequencies --   683.1150               688.3586               689.3677
 Red. masses --     4.6252                 2.9647                 1.3029
 Frc consts  --     1.2716                 0.8277                 0.3648
 IR Inten    --     4.5239                 4.0404                 1.6436

                    49                     50                     51
                     A                      A                      A
 Frequencies --   739.0328               745.9817               749.5425
 Red. masses --     3.9578                 4.4470                 4.2401
 Frc consts  --     1.2736                 1.4580                 1.4035
 IR Inten    --     0.5352                 7.1937                 2.4920

                    52                     53                     54
                     A                      A                      A
 Frequencies --   759.9244               773.9215               787.1444
 Red. masses --     1.3942                 1.2512                 3.4244
 Frc consts  --     0.4744                 0.4415                 1.2501
 IR Inten    --    45.4977                38.0146                 2.0533

                    55                     56                     57
                     A                      A                      A
 Frequencies --   791.2086               792.5821               822.4415
 Red. masses --     1.2745                 2.9973                 1.3973
 Frc consts  --     0.4701                 1.1093                 0.5569
 IR Inten    --     3.6645                 5.4095                 9.3418

                    58                     59                     60
                     A                      A                      A
 Frequencies --   823.5632               828.4921               833.8213
 Red. masses --     1.5399                 5.3574                 4.7429
 Frc consts  --     0.6154                 2.1666                 1.9428
 IR Inten    --     7.6569                52.8857                12.7398

                    61                     62                     63
                     A                      A                      A
 Frequencies --   841.2297               861.8864               865.1545
 Red. masses --     5.1827                 1.7940                 1.5928
 Frc consts  --     2.1609                 0.7852                 0.7024
 IR Inten    --     9.0879                26.0519                 0.3915

                    64                     65                     66
                     A                      A                      A
 Frequencies --   868.1014               877.3127               893.9495
 Red. masses --     3.6034                 2.7239                 1.3706
 Frc consts  --     1.6000                 1.2352                 0.6454
 IR Inten    --     6.1840                 9.8296                 0.1849

                    67                     68                     69
                     A                      A                      A
 Frequencies --   903.6892               909.1401               922.5543
 Red. masses --     3.8208                 3.3993                 4.8621
 Frc consts  --     1.8384                 1.6554                 2.4381
 IR Inten    --     2.5524                 0.4668                 3.5594

                    70                     71                     72
                     A                      A                      A
 Frequencies --   949.5106               953.1331               957.9940
 Red. masses --     1.5660                 2.4509                 1.3665
 Frc consts  --     0.8319                 1.3118                 0.7389
 IR Inten    --     2.5627                 5.0538                 1.1069

                    73                     74                     75
                     A                      A                      A
 Frequencies --   962.7044               975.1835               988.8153
 Red. masses --     3.4812                 4.3758                 1.3364
 Frc consts  --     1.9009                 2.4518                 0.7699
 IR Inten    --    56.5399                84.9596                 1.1258

                    76                     77                     78
                     A                      A                      A
 Frequencies --   996.2480               999.0775              1024.0985
 Red. masses --     1.2897                 2.3534                 2.0220
 Frc consts  --     0.7542                 1.3841                 1.2495
 IR Inten    --     0.0644                28.1482                 9.7330

                    79                     80                     81
                     A                      A                      A
 Frequencies --  1027.2494              1054.1554              1080.1818
 Red. masses --     2.5335                 1.2304                 1.3275
 Frc consts  --     1.5752                 0.8056                 0.9126
 IR Inten    --     0.3217                16.2857                 2.4776

                    82                     83                     84
                     A                      A                      A
 Frequencies --  1088.5261              1096.2210              1098.8591
 Red. masses --     1.1069                 3.1970                 1.1267
 Frc consts  --     0.7727                 2.2635                 0.8015
 IR Inten    --     7.8494                90.0216                 1.8171

                    85                     86                     87
                     A                      A                      A
 Frequencies --  1105.5453              1127.3940              1129.6203
 Red. masses --     1.4825                 2.2353                 2.5141
 Frc consts  --     1.0676                 1.6739                 1.8901
 IR Inten    --     4.2887                 2.0475                14.5758

                    88                     89                     90
                     A                      A                      A
 Frequencies --  1137.2652              1146.1151              1160.1555
 Red. masses --     1.4398                 1.4270                 1.6676
 Frc consts  --     1.0972                 1.1044                 1.3224
 IR Inten    --    26.6426                 2.3633                 7.8911

                    91                     92                     93
                     A                      A                      A
 Frequencies --  1177.1651              1184.1847              1192.4799
 Red. masses --     1.5856                 2.5695                 1.1453
 Frc consts  --     1.2946                 2.1229                 0.9596
 IR Inten    --     7.8827               252.9790                 5.1888

                    94                     95                     96
                     A                      A                      A
 Frequencies --  1194.6174              1213.8347              1221.8993
 Red. masses --     1.3425                 1.4929                 2.0102
 Frc consts  --     1.1289                 1.2960                 1.7683
 IR Inten    --     0.1915                17.4676                28.3600

                    97                     98                     99
                     A                      A                      A
 Frequencies --  1230.4354              1259.1579              1269.8471
 Red. masses --     1.6717                 2.7171                 2.5719
 Frc consts  --     1.4912                 2.5382                 2.4434
 IR Inten    --   196.6080                73.7953                10.1503

                   100                    101                    102
                     A                      A                      A
 Frequencies --  1280.6931              1295.4302              1318.5808
 Red. masses --     2.2097                 1.7359                 1.5177
 Frc consts  --     2.1354                 1.7164                 1.5547
 IR Inten    --    22.1245                 2.6812                13.7919

                   103                    104                    105
                     A                      A                      A
 Frequencies --  1319.3506              1335.2167              1352.7554
 Red. masses --     1.6552                 1.8165                 1.6527
 Frc consts  --     1.6975                 1.9080                 1.7819
 IR Inten    --    59.6021               121.3952                41.9300

                   106                    107                    108
                     A                      A                      A
 Frequencies --  1354.8531              1376.0823              1398.0992
 Red. masses --     4.1076                 3.9341                 1.6891
 Frc consts  --     4.4424                 4.3892                 1.9452
 IR Inten    --    58.3572                18.1703                59.4773

                   109                    110                    111
                     A                      A                      A
 Frequencies --  1408.7212              1419.8855              1422.8716
 Red. masses --     2.0052                 2.4057                 1.0906
 Frc consts  --     2.3446                 2.8576                 1.3009
 IR Inten    --   198.1120                13.3008                 3.6048

                   112                    113                    114
                     A                      A                      A
 Frequencies --  1429.1297              1435.9343              1440.8909
 Red. masses --     3.2881                 2.0533                 3.1874
 Frc consts  --     3.9567                 2.4945                 3.8990
 IR Inten    --     5.2699                25.1133                56.0841

                   115                    116                    117
                     A                      A                      A
 Frequencies --  1447.8029              1467.4042              1471.3866
 Red. masses --     2.4304                 1.5225                 2.5822
 Frc consts  --     3.0016                 1.9315                 3.2938
 IR Inten    --    31.5225                22.5948                17.0485

                   118                    119                    120
                     A                      A                      A
 Frequencies --  1474.3551              1489.8424              1530.2057
 Red. masses --     1.6196                 3.5798                 3.8128
 Frc consts  --     2.0743                 4.6816                 5.2602
 IR Inten    --    10.4186                23.7813                21.7364

                   121                    122                    123
                     A                      A                      A
 Frequencies --  1535.9048              1552.4345              1593.7384
 Red. masses --     2.3768                 2.7457                 5.8412
 Frc consts  --     3.3035                 3.8987                 8.7416
 IR Inten    --     2.2922               879.5265                 0.1988

                   124                    125                    126
                     A                      A                      A
 Frequencies --  1635.4886              1635.7540              1663.7276
 Red. masses --     5.2097                 7.3750                 6.3495
 Frc consts  --     8.2103                11.6265                10.3551
 IR Inten    --    42.7145                 2.1964                19.1988

                   127                    128                    129
                     A                      A                      A
 Frequencies --  1669.2675              1756.3130              1774.2549
 Red. masses --     7.4868                 8.8264                12.0883
 Frc consts  --    12.2913                16.0412                22.4206
 IR Inten    --    14.1235               161.4181               235.0155

                   130                    131                    132
                     A                      A                      A
 Frequencies --  3049.9066              3059.6413              3098.8042
 Red. masses --     1.0639                 1.0634                 1.1004
 Frc consts  --     5.8310                 5.8651                 6.2255
 IR Inten    --    21.8379                18.5491                10.4948

                   133                    134                    135
                     A                      A                      A
 Frequencies --  3118.0457              3131.9334              3134.0964
 Red. masses --     1.1003                 1.0498                 1.0587
 Frc consts  --     6.3029                 6.0670                 6.1273
 IR Inten    --     3.6260                11.6144                13.2224

                   136                    137                    138
                     A                      A                      A
 Frequencies --  3150.1312              3163.6159              3178.3954
 Red. masses --     1.0904                 1.0900                 1.0858
 Frc consts  --     6.3752                 6.4273                 6.4626
 IR Inten    --    11.1623                19.4744                 2.0694

                   139                    140                    141
                     A                      A                      A
 Frequencies --  3186.2701              3192.6733              3201.4293
 Red. masses --     1.0905                 1.0899                 1.0909
 Frc consts  --     6.5227                 6.5456                 6.5877
 IR Inten    --     9.1921                12.6372                 3.1716

                   142                    143                    144
                     A                      A                      A
 Frequencies --  3207.2813              3211.5716              3225.6244
 Red. masses --     1.0948                 1.0971                 1.0932
 Frc consts  --     6.6351                 6.6668                 6.7018
 IR Inten    --    16.2265                 7.4052                 5.1306

                   145                    146                    147
                     A                      A                      A
 Frequencies --  3227.2480              3240.2727              3251.6180
 Red. masses --     1.1205                 1.1179                 1.0980
 Frc consts  --     6.8759                 6.9152                 6.8401
 IR Inten    --     0.5969                 4.4167                 0.4729

                   148                    149                    150
                     A                      A                      A
 Frequencies --  3258.6529              3259.4879              3604.9197
 Red. masses --     1.0948                 1.0929                 1.0769
 Frc consts  --     6.8493                 6.8411                 8.2456
 IR Inten    --     1.1245                 8.5751                17.9699

 - Thermochemistry -
 -------------------
 Temperature   298.150 Kelvin.  Pressure   1.00000 Atm.
 Atom     1 has atomic number  8 and mass  15.99491

 Molecular mass:   431.14160 amu.
 Principal axes and moments of inertia in atomic units:
                           1         2         3
     Eigenvalues --  9366.61080********************
           X            0.99998   0.00611   0.00006
           Y           -0.00610   0.99958  -0.02827
           Z           -0.00023   0.02827   0.99960
 This molecule is an asymmetric top.
 Rotational symmetry number  1.
 Warning -- assumption of classical behavior for rotation
           may cause significant error
 Rotational temperatures (Kelvin)      0.00925     0.00283     0.00243
 Rotational constants (GHZ):           0.19268     0.05906     0.05067
 Zero-point vibrational energy    1064653.9 (Joules/Mol)
                                  254.45838 (Kcal/Mol)
 Warning -- explicit consideration of  41 degrees of freedom as
           vibrations may cause significant error
 Vibrational temperatures:     16.19    19.47    27.83    31.87    38.92
          (Kelvin)             46.20    57.59    84.02    92.00    99.70
                              107.84   128.43   164.07   228.70   250.71
                              263.45   291.89   316.02   334.78   358.18
                              391.96   404.25   419.31   482.62   499.13
                              506.39   514.66   600.90   610.55   624.03
                              633.15   658.48   686.63   763.63   783.74
                              791.45   805.25   829.33   842.30   850.24
                              868.83   900.02   928.48   961.83   978.92
                              982.85   990.39   991.85  1063.30  1073.30
                             1078.42  1093.36  1113.50  1132.52  1138.37
                             1140.35  1183.31  1184.92  1192.01  1199.68
                             1210.34  1240.06  1244.76  1249.00  1262.26
                             1286.19  1300.21  1308.05  1327.35  1366.13
                             1371.34  1378.34  1385.12  1403.07  1422.68
                             1433.38  1437.45  1473.45  1477.98  1516.69
                             1554.14  1566.14  1577.22  1581.01  1590.63
                             1622.07  1625.27  1636.27  1649.00  1669.20
                             1693.68  1703.78  1715.71  1718.79  1746.44
                             1758.04  1770.32  1811.65  1827.02  1842.63
                             1863.83  1897.14  1898.25  1921.08  1946.31
                             1949.33  1979.87  2011.55  2026.83  2042.90
                             2047.19  2056.20  2065.99  2073.12  2083.06
                             2111.26  2116.99  2121.27  2143.55  2201.62
                             2209.82  2233.60  2293.03  2353.10  2353.48
                             2393.73  2401.70  2526.94  2552.75  4388.13
                             4402.14  4458.48  4486.17  4506.15  4509.26
                             4532.33  4551.73  4573.00  4584.33  4593.54
                             4606.14  4614.56  4620.73  4640.95  4643.28
                             4662.02  4678.35  4688.47  4689.67  5186.67

 Zero-point correction=                           0.405505 (Hartree/Particle)
 Thermal correction to Energy=                    0.432379
 Thermal correction to Enthalpy=                  0.433323
 Thermal correction to Gibbs Free Energy=         0.341647
 Sum of electronic and zero-point Energies=          -1711.133193
 Sum of electronic and thermal Energies=             -1711.106320
 Sum of electronic and thermal Enthalpies=           -1711.105376
 Sum of electronic and thermal Free Energies=        -1711.197052

                     E (Thermal)             CV                S
                      KCal/Mol        Cal/Mol-Kelvin    Cal/Mol-Kelvin
 Total                  271.322            103.409            192.948
 Electronic               0.000              0.000              0.000
 Translational            0.889              2.981             44.074
 Rotational               0.889              2.981             37.564
 Vibrational            269.544             97.448            111.311
 Vibration     1          0.593              1.987              7.776
 Vibration     2          0.593              1.987              7.410
 Vibration     3          0.593              1.986              6.701
 Vibration     4          0.593              1.985              6.431
 Vibration     5          0.593              1.984              6.035
 Vibration     6          0.594              1.983              5.694
 Vibration     7          0.594              1.981              5.258
 Vibration     8          0.596              1.974              4.511
 Vibration     9          0.597              1.972              4.332
 Vibration    10          0.598              1.969              4.173
 Vibration    11          0.599              1.966              4.019
 Vibration    12          0.602              1.957              3.676
 Vibration    13          0.607              1.938              3.199
 Vibration    14          0.621              1.893              2.562
 Vibration    15          0.627              1.874              2.389
 Vibration    16          0.631              1.863              2.296
 Vibration    17          0.639              1.836              2.107
 Vibration    18          0.647              1.811              1.962
 Vibration    19          0.653              1.791              1.858
 Vibration    20          0.662              1.765              1.738
 Vibration    21          0.675              1.724              1.581
 Vibration    22          0.681              1.709              1.528
 Vibration    23          0.687              1.690              1.466
 Vibration    24          0.717              1.605              1.234
 Vibration    25          0.725              1.582              1.180
 Vibration    26          0.729              1.571              1.157
 Vibration    27          0.733              1.559              1.132
 Vibration    28          0.781              1.432              0.900
 Vibration    29          0.786              1.417              0.877
 Vibration    30          0.794              1.397              0.847
 Vibration    31          0.800              1.383              0.826
 Vibration    32          0.816              1.344              0.773
 Vibration    33          0.834              1.301              0.718
 Vibration    34          0.886              1.182              0.586
 Vibration    35          0.900              1.151              0.555
 Vibration    36          0.905              1.139              0.544
 Vibration    37          0.915              1.119              0.524
 Vibration    38          0.933              1.082              0.492
 Vibration    39          0.942              1.063              0.475
 Vibration    40          0.948              1.051              0.465
 Vibration    41          0.962              1.024              0.443

 Normal termination of Gaussian 09 at Tue Aug 30 20:42:58 2022.
