 Gaussian 09, Revision C.01,
 Gaussian 09:  EM64L-G09RevC.01 23-Sep-2011

 -------------------------
 #p opt freq b3lyp/cc-pvdz
 -------------------------

 (Enter /opt/gaussian/l101.exe)
 ---------
 Mol15.log
 ---------
 Charge =  0 Multiplicity = 1

 SCF Done:  E(RB3LYP) =  -1673.21620142     A.U. after   15 cycles
 SCF Done:  E(RB3LYP) =  -1673.22767772     A.U. after   13 cycles
 SCF Done:  E(RB3LYP) =  -1673.22854926     A.U. after   13 cycles
 SCF Done:  E(RB3LYP) =  -1673.22872652     A.U. after   13 cycles
 SCF Done:  E(RB3LYP) =  -1673.22868805     A.U. after   13 cycles
 SCF Done:  E(RB3LYP) =  -1673.22893061     A.U. after   12 cycles
 SCF Done:  E(RB3LYP) =  -1673.22897604     A.U. after   12 cycles
 SCF Done:  E(RB3LYP) =  -1673.22900010     A.U. after   12 cycles
 SCF Done:  E(RB3LYP) =  -1673.22901404     A.U. after   10 cycles
 SCF Done:  E(RB3LYP) =  -1673.22902580     A.U. after   12 cycles
 SCF Done:  E(RB3LYP) =  -1673.22904572     A.U. after   11 cycles
 SCF Done:  E(RB3LYP) =  -1673.22904931     A.U. after   11 cycles
 SCF Done:  E(RB3LYP) =  -1673.22904987     A.U. after    8 cycles
 SCF Done:  E(RB3LYP) =  -1673.22905004     A.U. after    8 cycles
 SCF Done:  E(RB3LYP) =  -1673.22905012     A.U. after    8 cycles
 SCF Done:  E(RB3LYP) =  -1673.22905013     A.U. after    8 cycles
 SCF Done:  E(RB3LYP) =  -1673.22905022     A.U. after    8 cycles
 SCF Done:  E(RB3LYP) =  -1673.22905019     A.U. after    8 cycles
 SCF Done:  E(RB3LYP) =  -1673.22905020     A.U. after    7 cycles
 Optimization completed.
    -- Stationary point found.
 Normal termination of Gaussian 09 at Fri Sep  2 14:32:10 2022.

 -------------------------------------------------------------------
 #P Geom=AllCheck Guess=TCheck SCRF=Check GenChk RB3LYP/CC-pVDZ Freq
 -------------------------------------------------------------------

 Structure from the checkpoint file:  /home/scr/lqcapf-6/Gau-142927.chk
 ---------
 Mol15.log
 ---------
 Charge =  0 Multiplicity = 1

                         Standard orientation:
 ---------------------------------------------------------------------
 Center     Atomic      Atomic             Coordinates (Angstroms)
 Number     Number       Type             X           Y           Z
 ---------------------------------------------------------------------
      1          8           0        1.003633   -1.441031   -0.135617
      2          6           0        1.149441   -0.380945   -0.714566
      3          6           0        2.548640    0.066566   -1.187268
      4          7           0        3.547577   -0.942390   -0.944338
      5          7           0        4.094109   -1.606875   -2.009194
      6          7           0        4.974782   -2.446539   -1.586675
      7          6           0        5.034491   -2.359918   -0.208887
      8          6           0        5.835271   -3.048879    0.719169
      9          6           0        5.675566   -2.732136    2.060767
     10          6           0        4.737669   -1.754588    2.481188
     11          6           0        3.935296   -1.067809    1.578994
     12          6           0        4.105273   -1.388776    0.222156
     13          7           0        0.105829    0.495622   -0.991213
     14          6           0        0.360390    1.814463   -1.584957
     15          6           0        0.853464    2.881276   -0.628228
     16          6           0        1.343789    4.153775   -1.078823
     17          6           0        1.723095    4.976738   -0.052625
     18         16           0        1.494752    4.218441    1.492957
     19          6           0        0.879341    2.777170    0.741551
     20          6           0       -1.249673    0.149686   -0.670139
     21          6           0       -2.139302    1.141588   -0.227478
     22          6           0       -3.473147    0.833886    0.039595
     23          6           0       -3.967169   -0.471120   -0.116865
     24          6           0       -3.064244   -1.455709   -0.559848
     25          6           0       -1.732576   -1.160302   -0.832942
     26          6           0       -5.384339   -0.836283    0.161934
     27          6           0       -6.323364    0.088177    0.658976
     28          6           0       -7.632390   -0.325622    0.896179
     29          6           0       -7.982857   -1.651307    0.634812
     30          6           0       -6.986610   -2.500200    0.145214
     31          7           0       -5.729061   -2.116512   -0.086332
     32          1           0        2.555967    0.233970   -2.273467
     33          1           0        2.834190    1.010374   -0.696210
     34          1           0        6.550293   -3.800503    0.381374
     35          1           0        6.277542   -3.244846    2.813773
     36          1           0        4.639379   -1.541905    3.548072
     37          1           0        3.202351   -0.332912    1.912641
     38          1           0        1.077541    1.710911   -2.414086
     39          1           0       -0.578854    2.141868   -2.054390
     40          1           0        1.411124    4.439154   -2.129996
     41          1           0        2.129621    5.984296   -0.113034
     42          1           0        0.562802    1.935285    1.353826
     43          1           0       -1.793417    2.164251   -0.072819
     44          1           0       -4.123540    1.640514    0.379898
     45          1           0       -3.436425   -2.470790   -0.693587
     46          1           0       -1.063889   -1.949716   -1.166956
     47          1           0       -6.039938    1.120297    0.864213
     48          1           0       -8.369944    0.381607    1.282905
     49          1           0       -8.995660   -2.020625    0.805373
     50          1           0       -7.213220   -3.549550   -0.073093
 ---------------------------------------------------------------------

 SCF Done:  E(RB3LYP) =  -1673.22905020     A.U. after    1 cycles

 The electronic state is 1-A.
 Alpha  occ. eigenvalues --  -88.92466 -19.12716 -14.40937 -14.38834 -14.38760
 Alpha  occ. eigenvalues --  -14.34542 -14.32845 -10.30825 -10.25919 -10.25624
 Alpha  occ. eigenvalues --  -10.24276 -10.23716 -10.23319 -10.23054 -10.22938
 Alpha  occ. eigenvalues --  -10.22780 -10.22158 -10.21391 -10.21268 -10.20863
 Alpha  occ. eigenvalues --  -10.20389 -10.20258 -10.20193 -10.20183 -10.20131
 Alpha  occ. eigenvalues --  -10.20071 -10.19827 -10.19656 -10.19326 -10.19250
 Alpha  occ. eigenvalues --  -10.19030  -7.98670  -5.94994  -5.94614  -5.94306
 Alpha  occ. eigenvalues --   -1.09204  -1.05930  -0.96698  -0.94852  -0.92272
 Alpha  occ. eigenvalues --   -0.89883  -0.86261  -0.86137  -0.80938  -0.79769
 Alpha  occ. eigenvalues --   -0.78340  -0.77526  -0.76699  -0.75492  -0.74798
 Alpha  occ. eigenvalues --   -0.74582  -0.73084  -0.70322  -0.66075  -0.64669
 Alpha  occ. eigenvalues --   -0.64209  -0.62276  -0.61860  -0.60837  -0.59098
 Alpha  occ. eigenvalues --   -0.58558  -0.56932  -0.56049  -0.54063  -0.53360
 Alpha  occ. eigenvalues --   -0.52647  -0.52277  -0.51564  -0.50693  -0.49357
 Alpha  occ. eigenvalues --   -0.48551  -0.47513  -0.46461  -0.46152  -0.45278
 Alpha  occ. eigenvalues --   -0.45148  -0.44914  -0.44337  -0.44119  -0.43258
 Alpha  occ. eigenvalues --   -0.43052  -0.42433  -0.42226  -0.41381  -0.41196
 Alpha  occ. eigenvalues --   -0.40816  -0.40299  -0.39382  -0.38901  -0.38244
 Alpha  occ. eigenvalues --   -0.37498  -0.37168  -0.36501  -0.36313  -0.36153
 Alpha  occ. eigenvalues --   -0.35374  -0.35030  -0.32831  -0.31244  -0.30922
 Alpha  occ. eigenvalues --   -0.29206  -0.27585  -0.27271  -0.26715  -0.26395
 Alpha  occ. eigenvalues --   -0.26002  -0.25838  -0.25580  -0.24716  -0.23268
 Alpha  occ. eigenvalues --   -0.22302
 Alpha virt. eigenvalues --   -0.05512  -0.03978  -0.03498  -0.03175  -0.00979
 Alpha virt. eigenvalues --   -0.00268   0.00950   0.01672   0.02352   0.03101
 Alpha virt. eigenvalues --    0.03798   0.04920   0.05388   0.06280   0.06847

 Mulliken atomic charges:
              1
     1  O   -0.236117
     2  C    0.131354
     3  C    0.122165
     4  N   -0.227854
     5  N   -0.061275
     6  N   -0.182373
     7  C    0.010905
     8  C    0.044457
     9  C    0.037826
    10  C    0.039278
    11  C    0.032449
    12  C    0.213190
    13  N   -0.280502
    14  C    0.141739
    15  C   -0.025775
    16  C    0.047738
    17  C   -0.099996
    18  S    0.162096
    19  C   -0.149837
    20  C    0.103646
    21  C    0.025948
    22  C   -0.018756
    23  C    0.024772
    24  C    0.059262
    25  C    0.088288
    26  C    0.094536
    27  C    0.005291
    28  C    0.089077
    29  C   -0.013680
    30  C    0.108368
    31  N   -0.205119
    32  H    0.061369
    33  H    0.060241
    34  H   -0.022662
    35  H   -0.027541
    36  H   -0.025868
    37  H   -0.031880
    38  H    0.037643
    39  H    0.048623
    40  H   -0.026716
    41  H    0.019680
    42  H    0.024388
    43  H   -0.024325
    44  H   -0.044173
    45  H   -0.032403
    46  H   -0.012720
    47  H   -0.028855
    48  H   -0.021259
    49  H   -0.023486
    50  H   -0.011155
 Sum of Mulliken atomic charges =   0.00000

 Dipole moment (field-independent basis, Debye):
    X=             -3.4325    Y=              6.1753    Z=              1.5302  Tot=              7.2290
 Quadrupole moment (field-independent basis, Debye-Ang):
   XX=           -172.5797   YY=           -178.0514   ZZ=           -183.7008
   XY=              9.1075   XZ=              7.0809   YZ=            -10.3067

  Exact polarizability: 415.812   5.745 305.115 -13.541   6.959 239.644
 Approx polarizability: 544.385 -13.814 511.946 -29.474  21.577 458.531

                     1                      2                      3
                     A                      A                      A
 Frequencies --    11.2052                14.3827                20.1894
 Red. masses --     6.3624                 4.2370                 7.0599
 Frc consts  --     0.0005                 0.0005                 0.0017
 IR Inten    --     1.4032                 0.8164                 0.4232

                     4                      5                      6
                     A                      A                      A
 Frequencies --    25.3444                27.2198                33.8630
 Red. masses --     6.3504                 7.0590                 4.2772
 Frc consts  --     0.0024                 0.0031                 0.0029
 IR Inten    --     0.1486                 0.3737                 0.6905

                     7                      8                      9
                     A                      A                      A
 Frequencies --    52.3899                55.9271                69.3383
 Red. masses --     5.2812                 6.2176                 5.8333
 Frc consts  --     0.0085                 0.0115                 0.0165
 IR Inten    --     0.3203                 0.3948                 1.9948

                    10                     11                     12
                     A                      A                      A
 Frequencies --    80.2412               105.6156               133.0875
 Red. masses --     7.0180                 6.1674                 5.7923
 Frc consts  --     0.0266                 0.0405                 0.0604
 IR Inten    --     1.6175                 0.7674                 2.3792

                    13                     14                     15
                     A                      A                      A
 Frequencies --   166.8366               179.2127               198.1299
 Red. masses --     5.6416                 6.6458                 6.1084
 Frc consts  --     0.0925                 0.1258                 0.1413
 IR Inten    --     2.1485                 0.9705                 1.2113

                    16                     17                     18
                     A                      A                      A
 Frequencies --   221.9393               227.9216               234.1971
 Red. masses --     5.2033                 5.6476                 5.9690
 Frc consts  --     0.1510                 0.1729                 0.1929
 IR Inten    --     3.1720                 1.3064                 0.9329

                    19                     20                     21
                     A                      A                      A
 Frequencies --   254.8061               298.3244               313.4534
 Red. masses --     3.1087                 4.5050                 3.6923
 Frc consts  --     0.1189                 0.2362                 0.2137
 IR Inten    --     3.9789                 1.1466                 1.2611

                    22                     23                     24
                     A                      A                      A
 Frequencies --   345.6059               365.4991               398.7749
 Red. masses --     6.6298                 5.7930                 6.3295
 Frc consts  --     0.4666                 0.4560                 0.5930
 IR Inten    --     0.1775                10.4291                 8.5160

                    25                     26                     27
                     A                      A                      A
 Frequencies --   410.2756               419.3870               431.6378
 Red. masses --     3.3250                 3.2913                 3.1215
 Frc consts  --     0.3298                 0.3411                 0.3427
 IR Inten    --     2.1821                 2.9811                 3.0147

                    28                     29                     30
                     A                      A                      A
 Frequencies --   439.3698               458.5379               464.0373
 Red. masses --     2.8879                 4.5767                 4.2504
 Frc consts  --     0.3285                 0.5670                 0.5392
 IR Inten    --     2.5542                 0.0239                 0.4715

                    31                     32                     33
                     A                      A                      A
 Frequencies --   476.2422               497.9734               538.5660
 Red. masses --     4.1164                 3.4865                 5.3391
 Frc consts  --     0.5501                 0.5094                 0.9124
 IR Inten    --     2.1858                 5.0112                 0.2511

                    34                     35                     36
                     A                      A                      A
 Frequencies --   569.3324               570.1531               582.8885
 Red. masses --     3.5058                 4.6763                 3.8781
 Frc consts  --     0.6695                 0.8956                 0.7763
 IR Inten    --     1.8616                 1.1357                 0.5499

                    37                     38                     39
                     A                      A                      A
 Frequencies --   587.3310               600.0291               607.0511
 Red. masses --     3.7869                 4.5185                 3.4912
 Frc consts  --     0.7697                 0.9585                 0.7580
 IR Inten    --     0.7651                 4.2660                15.5419

                    40                     41                     42
                     A                      A                      A
 Frequencies --   626.1458               642.9914               650.6190
 Red. masses --     6.9260                 6.5065                 6.5428
 Frc consts  --     1.5999                 1.5849                 1.6318
 IR Inten    --     8.2221                 2.5944                 0.9248

                    43                     44                     45
                     A                      A                      A
 Frequencies --   669.8592               681.0316               692.4331
 Red. masses --     7.4492                 5.7159                 5.0287
 Frc consts  --     1.9694                 1.5619                 1.4206
 IR Inten    --     4.6816                 2.2565                18.5734

                    46                     47                     48
                     A                      A                      A
 Frequencies --   697.8391               730.3017               746.7075
 Red. masses --     1.2694                 5.6536                 2.7219
 Frc consts  --     0.3642                 1.7766                 0.8942
 IR Inten    --     1.7929                 9.9179                18.8447

                    49                     50                     51
                     A                      A                      A
 Frequencies --   753.4367               759.6377               784.3329
 Red. masses --     1.8757                 1.3856                 1.3170
 Frc consts  --     0.6273                 0.4711                 0.4774
 IR Inten    --     5.4641                47.3467                33.5088

                    52                     53                     54
                     A                      A                      A
 Frequencies --   786.4529               788.5382               799.1870
 Red. masses --     3.4227                 3.9728                 5.5037
 Frc consts  --     1.2473                 1.4554                 2.0711
 IR Inten    --     2.0892                 5.4330                 2.3670

                    55                     56                     57
                     A                      A                      A
 Frequencies --   806.6395               832.7143               834.7745
 Red. masses --     2.0529                 5.2125                 5.3035
 Frc consts  --     0.7870                 2.1295                 2.1775
 IR Inten    --    44.2890                30.3922                28.8893

                    58                     59                     60
                     A                      A                      A
 Frequencies --   841.4893               864.1337               866.7782
 Red. masses --     1.3533                 1.6400                 3.5227
 Frc consts  --     0.5646                 0.7215                 1.5594
 IR Inten    --     1.1351                 0.8765                11.9645

                    61                     62                     63
                     A                      A                      A
 Frequencies --   871.1136               882.1355               895.7166
 Red. masses --     2.6205                 1.9536                 1.3457
 Frc consts  --     1.1716                 0.8957                 0.6361
 IR Inten    --     8.9612                17.7415                 0.5356

                    64                     65                     66
                     A                      A                      A
 Frequencies --   902.3219               922.9611               952.0665
 Red. masses --     1.5218                 4.8504                 3.2842
 Frc consts  --     0.7300                 2.4344                 1.7539
 IR Inten    --     0.5187                 3.4349                 5.5696

                    67                     68                     69
                     A                      A                      A
 Frequencies --   958.0855               961.8765               967.8731
 Red. masses --     1.3751                 3.4340                 1.3586
 Frc consts  --     0.7437                 1.8719                 0.7498
 IR Inten    --     2.4036                81.7932                 0.1625

                    70                     71                     72
                     A                      A                      A
 Frequencies --   981.1461               996.8840              1003.1132
 Red. masses --     1.4229                 1.2912                 2.3207
 Frc consts  --     0.8070                 0.7560                 1.3759
 IR Inten    --     0.1590                 0.0740                48.9507

                    73                     74                     75
                     A                      A                      A
 Frequencies --  1005.6141              1010.5425              1015.4857
 Red. masses --     6.5238                 1.3165                 1.3736
 Frc consts  --     3.8870                 0.7921                 0.8346
 IR Inten    --     3.5259                 0.0248                 0.3967

                    76                     77                     78
                     A                      A                      A
 Frequencies --  1024.1820              1025.4910              1054.9682
 Red. masses --     2.2888                 2.9194                 3.5982
 Frc consts  --     1.4145                 1.8089                 2.3595
 IR Inten    --     6.8930                 6.1999                 1.1705

                    79                     80                     81
                     A                      A                      A
 Frequencies --  1082.1904              1089.1703              1096.0180
 Red. masses --     1.9474                 1.1075                 3.2091
 Frc consts  --     1.3437                 0.7741                 2.2713
 IR Inten    --     1.7604                 7.3644                68.6682

                    82                     83                     84
                     A                      A                      A
 Frequencies --  1115.2234              1126.6995              1128.2610
 Red. masses --     1.5761                 2.5770                 2.2317
 Frc consts  --     1.1549                 1.9275                 1.6738
 IR Inten    --    10.1678                11.2698                16.9324

                    85                     86                     87
                     A                      A                      A
 Frequencies --  1145.7343              1145.9674              1163.9540
 Red. masses --     1.4314                 1.3858                 1.6978
 Frc consts  --     1.1071                 1.0723                 1.3552
 IR Inten    --     1.7043                 0.7103                15.8992

                    88                     89                     90
                     A                      A                      A
 Frequencies --  1171.5084              1177.5341              1209.9689
 Red. masses --     1.1359                 1.5626                 1.2233
 Frc consts  --     0.9185                 1.2766                 1.0552
 IR Inten    --     3.5285                 7.2641               123.3500

                    91                     92                     93
                     A                      A                      A
 Frequencies --  1215.6615              1223.5063              1259.4027
 Red. masses --     1.4904                 1.5751                 3.1222
 Frc consts  --     1.2977                 1.3892                 2.9177
 IR Inten    --     4.1452               202.2849                57.5687

                    94                     95                     96
                     A                      A                      A
 Frequencies --  1270.2170              1290.2228              1295.9232
 Red. masses --     2.6912                 1.9605                 1.7039
 Frc consts  --     2.5583                 1.9228                 1.6860
 IR Inten    --     7.7027                 0.1681                 2.2694

                    97                     98                     99
                     A                      A                      A
 Frequencies --  1300.4321              1320.0215              1327.2297
 Red. masses --     2.8423                 1.6657                 3.6208
 Frc consts  --     2.8320                 1.7101                 3.7579
 IR Inten    --    12.0760                59.8238                13.1161

                   100                    101                    102
                     A                      A                      A
 Frequencies --  1331.5963              1340.9192              1351.1209
 Red. masses --     1.5982                 1.6109                 1.6590
 Frc consts  --     1.6697                 1.7066                 1.7844
 IR Inten    --    30.8694                61.0462                58.9112

                   103                    104                    105
                     A                      A                      A
 Frequencies --  1357.4693              1376.3431              1406.9470
 Red. masses --     3.4741                 4.0245                 2.0799
 Frc consts  --     3.7718                 4.4918                 2.4257
 IR Inten    --     0.9739                22.0979               247.5314

                   106                    107                    108
                     A                      A                      A
 Frequencies --  1421.0020              1429.0549              1435.5317
 Red. masses --     2.4149                 3.0378                 2.2353
 Frc consts  --     2.8730                 3.6552                 2.7140
 IR Inten    --    28.6990                 1.9829                 3.5383

                   109                    110                    111
                     A                      A                      A
 Frequencies --  1440.8790              1443.8440              1467.6556
 Red. masses --     2.9709                 2.0421                 2.7319
 Frc consts  --     3.6341                 2.5082                 3.4671
 IR Inten    --    19.0598                78.8702                37.1076

                   112                    113                    114
                     A                      A                      A
 Frequencies --  1470.0109              1475.5943              1489.5933
 Red. masses --     4.0067                 1.2374                 3.5694
 Frc consts  --     5.1013                 1.5874                 4.6664
 IR Inten    --     6.2744                31.2296                24.7756

                   115                    116                    117
                     A                      A                      A
 Frequencies --  1496.5194              1530.3256              1544.3177
 Red. masses --     2.3966                 3.7972                 2.8077
 Frc consts  --     3.1624                 5.2394                 3.9452
 IR Inten    --   119.4520                19.9342                66.2841

                   118                    119                    120
                     A                      A                      A
 Frequencies --  1593.4025              1608.6605              1627.8626
 Red. masses --     5.8302                 5.5711                 7.0085
 Frc consts  --     8.7214                 8.4941                10.9424
 IR Inten    --     0.5759                12.0972                26.8607

                   121                    122                    123
                     A                      A                      A
 Frequencies --  1635.6727              1637.5543              1659.7058
 Red. masses --     7.3653                 5.9038                 6.1717
 Frc consts  --    11.6101                 9.3276                10.0165
 IR Inten    --     2.9518               126.4344                20.7122

                   124                    125                    126
                     A                      A                      A
 Frequencies --  1669.3142              1774.4245              3050.1016
 Red. masses --     7.4802                12.0820                 1.0638
 Frc consts  --    12.2811                22.4132                 5.8309
 IR Inten    --    13.6022               229.8440                22.6109

                   127                    128                    129
                     A                      A                      A
 Frequencies --  3056.3771              3087.8570              3118.9888
 Red. masses --     1.0626                 1.1009                 1.1009
 Frc consts  --     5.8482                 6.1847                 6.3098
 IR Inten    --    20.2730                10.5835                 3.8954

                   130                    131                    132
                     A                      A                      A
 Frequencies --  3148.6253              3179.2944              3179.8857
 Red. masses --     1.0897                 1.0858                 1.0878
 Frc consts  --     6.3650                 6.4666                 6.4806
 IR Inten    --    32.1635                 1.9128                11.9735

                   133                    134                    135
                     A                      A                      A
 Frequencies --  3190.3551              3193.3788              3201.8879
 Red. masses --     1.0877                 1.0900                 1.0910
 Frc consts  --     6.5228                 6.5493                 6.5900
 IR Inten    --    10.4323                12.3364                 3.1033

                   136                    137                    138
                     A                      A                      A
 Frequencies --  3202.7798              3206.4421              3208.7009
 Red. masses --     1.0940                 1.0962                 1.0947
 Frc consts  --     6.6120                 6.6403                 6.6403
 IR Inten    --    13.1091                 6.3173                17.2684

                   139                    140                    141
                     A                      A                      A
 Frequencies --  3212.3108              3215.2894              3222.6095
 Red. masses --     1.0971                 1.0929                 1.0893
 Frc consts  --     6.6701                 6.6567                 6.6654
 IR Inten    --     5.8095                12.4877                 0.2323

                   142                    143                    144
                     A                      A                      A
 Frequencies --  3247.5231              3248.4146              3251.8563
 Red. masses --     1.0938                 1.0941                 1.0990
 Frc consts  --     6.7969                 6.8025                 6.8471
 IR Inten    --     1.5558                 1.2786                 0.9856

 - Thermochemistry -
 -------------------
 Temperature   298.150 Kelvin.  Pressure   1.00000 Atm.
 Atom     1 has atomic number  8 and mass  15.99491

 Molecular mass:   425.13103 amu.
 Principal axes and moments of inertia in atomic units:
                           1         2         3
     Eigenvalues --  9707.89162********************
           X            1.00000   0.00096   0.00160
           Y           -0.00093   0.99985  -0.01729
           Z           -0.00162   0.01729   0.99985
 This molecule is an asymmetric top.
 Rotational symmetry number  1.
 Warning -- assumption of classical behavior for rotation
           may cause significant error
 Rotational temperatures (Kelvin)      0.00892     0.00319     0.00261
 Rotational constants (GHZ):           0.18590     0.06651     0.05448
 Zero-point vibrational energy    1013038.3 (Joules/Mol)
                                  242.12197 (Kcal/Mol)
 Warning -- explicit consideration of  39 degrees of freedom as
           vibrations may cause significant error
 Vibrational temperatures:     16.12    20.69    29.05    36.46    39.16
          (Kelvin)             48.72    75.38    80.47    99.76   115.45
                              151.96   191.48   240.04   257.85   285.06
                              319.32   327.93   336.96   366.61   429.22
                              450.99   497.25   525.87   573.75   590.29
                              603.40   621.03   632.15   659.73   667.65
                              685.21   716.47   774.88   819.14   820.32
                              838.65   845.04   863.31   873.41   900.88
                              925.12   936.09   963.78   979.85   996.26
                             1004.03  1050.74  1074.34  1084.03  1092.95
                             1128.48  1131.53  1134.53  1149.85  1160.57
                             1198.09  1201.05  1210.71  1243.29  1247.10
                             1253.34  1269.19  1288.73  1298.24  1327.93
                             1369.81  1378.47  1383.92  1392.55  1411.65
                             1434.29  1443.25  1446.85  1453.94  1461.06
                             1473.57  1475.45  1517.86  1557.03  1567.07
                             1576.92  1604.56  1621.07  1623.31  1648.45
                             1648.79  1674.67  1685.54  1694.21  1740.87
                             1749.06  1760.35  1812.00  1827.56  1856.34
                             1864.54  1871.03  1899.21  1909.59  1915.87
                             1929.28  1943.96  1953.09  1980.25  2024.28
                             2044.50  2056.09  2065.41  2073.10  2077.37
                             2111.63  2115.02  2123.05  2143.19  2153.15
                             2201.79  2221.93  2292.55  2314.50  2342.13
                             2353.37  2356.07  2387.94  2401.77  2553.00
                             4388.41  4397.44  4442.73  4487.52  4530.16
                             4574.29  4575.14  4590.20  4594.55  4606.80
                             4608.08  4613.35  4616.60  4621.79  4626.08
                             4636.61  4672.46  4673.74  4678.69

 Zero-point correction=                           0.385846 (Hartree/Particle)
 Thermal correction to Energy=                    0.410926
 Thermal correction to Enthalpy=                  0.411870
 Thermal correction to Gibbs Free Energy=         0.324760
 Sum of electronic and zero-point Energies=          -1672.843204
 Sum of electronic and thermal Energies=             -1672.818124
 Sum of electronic and thermal Enthalpies=           -1672.817180
 Sum of electronic and thermal Free Energies=        -1672.904291

                     E (Thermal)             CV                S
                      KCal/Mol        Cal/Mol-Kelvin    Cal/Mol-Kelvin
 Total                  257.860             98.186            183.339
 Electronic               0.000              0.000              0.000
 Translational            0.889              2.981             44.032
 Rotational               0.889              2.981             37.410
 Vibrational            256.082             92.225            101.898
 Vibration     1          0.593              1.987              7.785
 Vibration     2          0.593              1.986              7.289
 Vibration     3          0.593              1.986              6.615
 Vibration     4          0.593              1.985              6.164
 Vibration     5          0.593              1.984              6.022
 Vibration     6          0.594              1.983              5.589
 Vibration     7          0.596              1.977              4.725
 Vibration     8          0.596              1.975              4.596
 Vibration     9          0.598              1.969              4.172
 Vibration    10          0.600              1.963              3.885
 Vibration    11          0.605              1.945              3.348
 Vibration    12          0.613              1.920              2.901
 Vibration    13          0.624              1.883              2.471
 Vibration    14          0.629              1.868              2.337
 Vibration    15          0.637              1.842              2.150
 Vibration    16          0.648              1.808              1.943
 Vibration    17          0.651              1.798              1.895
 Vibration    18          0.654              1.789              1.847
 Vibration    19          0.665              1.755              1.697
 Vibration    20          0.691              1.677              1.426
 Vibration    21          0.701              1.648              1.344
 Vibration    22          0.724              1.584              1.186
 Vibration    23          0.739              1.543              1.099
 Vibration    24          0.765              1.473              0.967
 Vibration    25          0.774              1.448              0.926
 Vibration    26          0.782              1.428              0.894
 Vibration    27          0.793              1.401              0.853
 Vibration    28          0.799              1.384              0.829
 Vibration    29          0.817              1.342              0.770
 Vibration    30          0.822              1.330              0.754
 Vibration    31          0.833              1.303              0.720
 Vibration    32          0.853              1.255              0.663
 Vibration    33          0.894              1.165              0.568
 Vibration    34          0.925              1.098              0.506
 Vibration    35          0.926              1.096              0.504
 Vibration    36          0.940              1.068              0.480
 Vibration    37          0.944              1.059              0.472
 Vibration    38          0.958              1.032              0.450
 Vibration    39          0.966              1.017              0.438

 Normal termination of Gaussian 09 at Fri Sep  2 17:02:32 2022.
