 Gaussian 09, Revision C.01,
 Gaussian 09:  EM64L-G09RevC.01 23-Sep-2011

 -------------------------
 #p opt freq b3lyp/cc-pvdz
 -------------------------

 (Enter /opt/gaussian/l101.exe)
 ---------
 Mol12.log
 ---------
 Charge =  0 Multiplicity = 1

 SCF Done:  E(RB3LYP) =  -2069.31238146     A.U. after   16 cycles
 SCF Done:  E(RB3LYP) =  -2069.35205763     A.U. after   13 cycles
 SCF Done:  E(RB3LYP) =  -2069.36112831     A.U. after   13 cycles
 SCF Done:  E(RB3LYP) =  -2069.36373753     A.U. after   13 cycles
 SCF Done:  E(RB3LYP) =  -2069.36413066     A.U. after   12 cycles
 SCF Done:  E(RB3LYP) =  -2069.36426921     A.U. after   13 cycles
 SCF Done:  E(RB3LYP) =  -2069.36447553     A.U. after   13 cycles
 SCF Done:  E(RB3LYP) =  -2069.36454547     A.U. after   12 cycles
 SCF Done:  E(RB3LYP) =  -2069.36461568     A.U. after   12 cycles
 SCF Done:  E(RB3LYP) =  -2069.36467799     A.U. after   12 cycles
 SCF Done:  E(RB3LYP) =  -2069.36551031     A.U. after   11 cycles
 SCF Done:  E(RB3LYP) =  -2069.36551699     A.U. after   12 cycles
 SCF Done:  E(RB3LYP) =  -2069.36552054     A.U. after   10 cycles
 SCF Done:  E(RB3LYP) =  -2069.36552096     A.U. after    8 cycles
 SCF Done:  E(RB3LYP) =  -2069.36552159     A.U. after   10 cycles
 SCF Done:  E(RB3LYP) =  -2069.36552184     A.U. after    8 cycles
 SCF Done:  E(RB3LYP) =  -2069.36552234     A.U. after   10 cycles
 SCF Done:  E(RB3LYP) =  -2069.36552273     A.U. after    9 cycles
 SCF Done:  E(RB3LYP) =  -2069.36552295     A.U. after    8 cycles
 Optimization completed.
    -- Stationary point found.
 Normal termination of Gaussian 09 at Thu Sep  1 06:51:24 2022.

 -------------------------------------------------------------------
 #P Geom=AllCheck Guess=TCheck SCRF=Check GenChk RB3LYP/CC-pVDZ Freq
 -------------------------------------------------------------------

 Structure from the checkpoint file:  /home/scr/lqcapf-6/Gau-70949.chk
 ---------
 Mol12.log
 ---------
 Charge =  0 Multiplicity = 1

                         Standard orientation:
 ---------------------------------------------------------------------
 Center     Atomic      Atomic             Coordinates (Angstroms)
 Number     Number       Type             X           Y           Z
 ---------------------------------------------------------------------
      1          6           0       -5.676662   -2.752277    0.827791
      2         16           0       -5.991492   -0.981583    0.692074
      3          8           0       -5.243949   -0.300232    1.775318
      4          8           0       -7.442246   -0.752441    0.499036
      5          7           0       -5.291369   -0.635816   -0.866326
      6          6           0       -3.901330   -0.273080   -0.899477
      7          6           0       -2.971282   -1.219722   -1.345579
      8          6           0       -1.611563   -0.920503   -1.407177
      9          6           0       -1.151257    0.351341   -1.024113
     10          6           0       -2.086883    1.302966   -0.581310
     11          6           0       -3.444836    0.992603   -0.515341
     12          7           0        0.237154    0.699352   -1.115730
     13          6           0        0.587142    2.082602   -1.482863
     14          6           0        1.093696    2.948028   -0.345310
     15          6           0        0.713613    2.805408    1.032293
     16          6           0        1.289505    3.746141    1.845588
     17         16           0        2.308981    4.829944    0.952571
     18          6           0        1.960513    3.999566   -0.530782
     19          6           0        1.223819   -0.239648   -0.830351
     20          8           0        0.987389   -1.367932   -0.440108
     21          6           0        2.678321    0.229546   -1.030791
     22          7           0        3.619316   -0.849282   -0.871548
     23          7           0        4.284544   -1.318684   -1.972617
     24          7           0        5.090615   -2.259180   -1.619433
     25          6           0        4.977955   -2.441119   -0.254251
     26          6           0        5.643787   -3.327842    0.610535
     27          6           0        5.321538   -3.267965    1.958924
     28          6           0        4.354209   -2.351908    2.446331
     29          6           0        3.683146   -1.472561    1.606283
     30          6           0        4.018447   -1.533577    0.243638
     31          1           0       -4.591554   -2.914680    0.795084
     32          1           0       -6.082083   -3.059788    1.801133
     33          1           0       -6.192323   -3.256379    0.001903
     34          1           0       -5.909076    0.090094   -1.240349
     35          1           0       -3.328377   -2.198968   -1.669887
     36          1           0       -0.908894   -1.673401   -1.753429
     37          1           0       -1.762393    2.292512   -0.258428
     38          1           0       -4.151761    1.732950   -0.137965
     39          1           0        1.330230    2.070240   -2.294673
     40          1           0       -0.317426    2.524965   -1.921590
     41          1           0        0.047807    2.025802    1.402252
     42          1           0        1.175849    3.863918    2.921273
     43          1           0        2.415670    4.335616   -1.461034
     44          1           0        2.831025    0.608845   -2.050670
     45          1           0        2.912366    1.047362   -0.331111
     46          1           0        6.383120   -4.029135    0.220869
     47          1           0        5.815454   -3.939501    2.664128
     48          1           0        4.125641   -2.344502    3.514431
     49          1           0        2.924262   -0.787618    1.985129
 ---------------------------------------------------------------------

 SCF Done:  E(RB3LYP) =  -2069.36552295     A.U. after    1 cycles

 The electronic state is 1-A.
 Alpha  occ. eigenvalues --  -89.10744 -88.92807 -19.13342 -19.13334 -19.13298
 Alpha  occ. eigenvalues --  -14.41264 -14.39484 -14.39086 -14.36894 -14.34870
 Alpha  occ. eigenvalues --  -10.31409 -10.26341 -10.25997 -10.25442 -10.24132
 Alpha  occ. eigenvalues --  -10.23539 -10.23493 -10.23405 -10.23232 -10.22453
 Alpha  occ. eigenvalues --  -10.21418 -10.21280 -10.21160 -10.21125 -10.20939
 Alpha  occ. eigenvalues --  -10.20690 -10.20425 -10.20085 -10.19931 -10.19518
 Alpha  occ. eigenvalues --   -8.14100  -7.99010  -6.10434  -6.10392  -6.10238
 Alpha  occ. eigenvalues --   -5.95330  -5.94950  -5.94655  -1.10447  -1.09533
 Alpha  occ. eigenvalues --   -1.06533  -0.99632  -0.97295  -0.93722  -0.92614
 Alpha  occ. eigenvalues --   -0.90195  -0.86503  -0.86175  -0.79386  -0.78446
 Alpha  occ. eigenvalues --   -0.77865  -0.77204  -0.76882  -0.75412  -0.74982
 Alpha  occ. eigenvalues --   -0.73763  -0.70624  -0.65977  -0.64941  -0.63390
 Alpha  occ. eigenvalues --   -0.62466  -0.61816  -0.59816  -0.59034  -0.57751
 Alpha  occ. eigenvalues --   -0.56377  -0.54638  -0.53541  -0.53074  -0.52758
 Alpha  occ. eigenvalues --   -0.52251  -0.52009  -0.51281  -0.48739  -0.48065
 Alpha  occ. eigenvalues --   -0.47132  -0.46963  -0.46752  -0.46646  -0.45748
 Alpha  occ. eigenvalues --   -0.44737  -0.44642  -0.44193  -0.43954  -0.43741
 Alpha  occ. eigenvalues --   -0.43298  -0.42945  -0.42532  -0.41741  -0.41299
 Alpha  occ. eigenvalues --   -0.40015  -0.39768  -0.39129  -0.38327  -0.37670
 Alpha  occ. eigenvalues --   -0.37327  -0.36753  -0.36480  -0.35650  -0.34111
 Alpha  occ. eigenvalues --   -0.33153  -0.32003  -0.31350  -0.31194  -0.30864
 Alpha  occ. eigenvalues --   -0.29539  -0.28600  -0.28056  -0.27185  -0.26967
 Alpha  occ. eigenvalues --   -0.26692  -0.25901  -0.25017  -0.24010  -0.23499
 Alpha virt. eigenvalues --   -0.04403  -0.04245  -0.03987  -0.02835   0.00346
 Alpha virt. eigenvalues --    0.00784   0.01713   0.02244   0.03399   0.04055
 Alpha virt. eigenvalues --    0.04126   0.05341   0.06197   0.06427   0.06674

 Mulliken atomic charges:
              1
     1  C   -0.107854
     2  S    0.841700
     3  O   -0.440258
     4  O   -0.455427
     5  N   -0.330535
     6  C   -0.006659
     7  C    0.082741
     8  C    0.073747
     9  C    0.115993
    10  C    0.005716
    11  C    0.095512
    12  N   -0.285831
    13  C    0.153470
    14  C   -0.041178
    15  C    0.044366
    16  C   -0.097069
    17  S    0.166575
    18  C   -0.145281
    19  C    0.139692
    20  O   -0.239778
    21  C    0.125988
    22  N   -0.228543
    23  N   -0.062398
    24  N   -0.181965
    25  C    0.010547
    26  C    0.044336
    27  C    0.037592
    28  C    0.039296
    29  C    0.031596
    30  C    0.212697
    31  H    0.076328
    32  H    0.081875
    33  H    0.074057
    34  H    0.126370
    35  H   -0.032052
    36  H   -0.008092
    37  H   -0.015130
    38  H   -0.030077
    39  H    0.027823
    40  H    0.052606
    41  H   -0.003975
    42  H    0.021617
    43  H    0.006883
    44  H    0.057549
    45  H    0.068553
    46  H   -0.022296
    47  H   -0.026948
    48  H   -0.024859
    49  H   -0.029023
 Sum of Mulliken atomic charges =   0.00000

 Dipole moment (field-independent basis, Debye):
    X=              0.1674    Y=              2.8753    Z=              0.1747  Tot=              2.8855
 Quadrupole moment (field-independent basis, Debye-Ang):
   XX=           -224.2861   YY=           -172.2557   ZZ=           -184.4598
   XY=             18.6475   XZ=             22.3320   YZ=            -11.8674

  Exact polarizability: 339.286  -1.540 285.878  -4.812  -2.228 245.646
 Approx polarizability: 472.964 -14.125 459.351 -19.436   2.906 454.250

                     1                      2                      3
                     A                      A                      A
 Frequencies --     8.4041                15.2471                17.4718
 Red. masses --     6.5769                 6.5452                 7.8416
 Frc consts  --     0.0003                 0.0009                 0.0014
 IR Inten    --     0.6693                 1.2433                 2.1513

                     4                      5                      6
                     A                      A                      A
 Frequencies --    23.7449                25.1713                38.4167
 Red. masses --     7.4210                 6.3548                 5.1901
 Frc consts  --     0.0025                 0.0024                 0.0045
 IR Inten    --     1.0996                 0.9793                 0.3379

                     7                      8                      9
                     A                      A                      A
 Frequencies --    47.8651                56.3532                62.1951
 Red. masses --     5.4266                 5.0382                 5.6169
 Frc consts  --     0.0073                 0.0094                 0.0128
 IR Inten    --     1.6859                 1.2157                 1.3003

                    10                     11                     12
                     A                      A                      A
 Frequencies --    70.7023                89.4656               105.9535
 Red. masses --     5.5052                 6.0998                 6.0028
 Frc consts  --     0.0162                 0.0288                 0.0397
 IR Inten    --     2.9943                 0.6886                 2.0637

                    13                     14                     15
                     A                      A                      A
 Frequencies --   156.0102               177.6212               193.2774
 Red. masses --     6.5621                 5.7997                 5.2282
 Frc consts  --     0.0941                 0.1078                 0.1151
 IR Inten    --     0.7627                 1.7323                 2.5351

                    16                     17                     18
                     A                      A                      A
 Frequencies --   205.2334               220.3533               223.3851
 Red. masses --     1.2933                 3.1498                 4.5764
 Frc consts  --     0.0321                 0.0901                 0.1346
 IR Inten    --     1.0151                 1.3084                 4.0738

                    19                     20                     21
                     A                      A                      A
 Frequencies --   233.5975               243.8288               251.7650
 Red. masses --     6.1433                 5.3944                 3.5282
 Frc consts  --     0.1975                 0.1890                 0.1318
 IR Inten    --     0.3267                 4.6372                 2.9773

                    22                     23                     24
                     A                      A                      A
 Frequencies --   275.1612               291.0073               321.5610
 Red. masses --     4.6440                 4.5202                 3.8708
 Frc consts  --     0.2072                 0.2255                 0.2358
 IR Inten    --     0.7800                 1.5619                 1.7686

                    25                     26                     27
                     A                      A                      A
 Frequencies --   343.1194               366.0246               381.4091
 Red. masses --     6.4107                 6.0843                 5.0922
 Frc consts  --     0.4447                 0.4803                 0.4365
 IR Inten    --     0.8078                14.9250                 5.4786

                    28                     29                     30
                     A                      A                      A
 Frequencies --   404.1358               426.4090               437.8912
 Red. masses --     2.6971                 3.2769                 3.5024
 Frc consts  --     0.2595                 0.3511                 0.3957
 IR Inten    --     4.6897                 3.1453                 1.1192

                    31                     32                     33
                     A                      A                      A
 Frequencies --   440.0637               448.4628               461.5541
 Red. masses --     3.0018                 4.7142                 4.4977
 Frc consts  --     0.3425                 0.5586                 0.5645
 IR Inten    --     3.1888                37.1422                 0.1340

                    34                     35                     36
                     A                      A                      A
 Frequencies --   474.1005               481.3975               522.2167
 Red. masses --     3.9960                 5.0704                 4.1851
 Frc consts  --     0.5292                 0.6923                 0.6724
 IR Inten    --     0.8888                33.4894                23.7584

                    37                     38                     39
                     A                      A                      A
 Frequencies --   543.5415               567.8006               575.7015
 Red. masses --     5.1113                 4.4860                 3.5699
 Frc consts  --     0.8897                 0.8521                 0.6971
 IR Inten    --    18.3829                 8.9386                25.4728

                    40                     41                     42
                     A                      A                      A
 Frequencies --   581.3524               585.6859               598.9484
 Red. masses --     4.1691                 4.0500                 4.7032
 Frc consts  --     0.8302                 0.8185                 0.9941
 IR Inten    --    38.8146                 4.3997                30.1247

                    43                     44                     45
                     A                      A                      A
 Frequencies --   617.3076               634.8498               647.7350
 Red. masses --     4.3101                 5.9945                 6.5918
 Frc consts  --     0.9677                 1.4235                 1.6295
 IR Inten    --     5.8938                 8.7439                 0.8878

                    46                     47                     48
                     A                      A                      A
 Frequencies --   669.3436               677.2515               687.4848
 Red. masses --     7.2403                 5.7057                 2.9358
 Frc consts  --     1.9112                 1.5419                 0.8175
 IR Inten    --     4.6045                 3.9630                37.2925

                    49                     50                     51
                     A                      A                      A
 Frequencies --   689.8251               704.9676               736.5311
 Red. masses --     1.3073                 4.0664                 4.1145
 Frc consts  --     0.3665                 1.1907                 1.3151
 IR Inten    --     6.2111                31.2046                 4.3853

                    52                     53                     54
                     A                      A                      A
 Frequencies --   754.5411               760.2592               779.6890
 Red. masses --     4.4349                 1.3994                 1.3213
 Frc consts  --     1.4876                 0.4766                 0.4733
 IR Inten    --    13.6009                43.0482                37.4679

                    55                     56                     57
                     A                      A                      A
 Frequencies --   786.6971               792.1795               824.0816
 Red. masses --     3.4141                 5.0203                 1.6987
 Frc consts  --     1.2449                 1.8562                 0.6797
 IR Inten    --     1.5995                 5.6391                28.2039

                    58                     59                     60
                     A                      A                      A
 Frequencies --   824.9058               834.4537               835.1835
 Red. masses --     5.6646                 3.1744                 1.6640
 Frc consts  --     2.2711                 1.3023                 0.6839
 IR Inten    --    17.6007                33.9568                 9.3646

                    61                     62                     63
                     A                      A                      A
 Frequencies --   857.6764               865.2120               869.4838
 Red. masses --     4.2006                 1.5674                 4.2624
 Frc consts  --     1.8206                 0.6913                 1.8986
 IR Inten    --    86.2152                 0.5571                 1.1943

                    64                     65                     66
                     A                      A                      A
 Frequencies --   878.2749               896.6893               903.2475
 Red. masses --     3.5088                 2.0774                 1.3397
 Frc consts  --     1.5947                 0.9841                 0.6440
 IR Inten    --     7.9054                52.1243                 5.7873

                    67                     68                     69
                     A                      A                      A
 Frequencies --   921.4222               939.1980               954.3129
 Red. masses --     4.5877                 3.2531                 1.3546
 Frc consts  --     2.2949                 1.6907                 0.7269
 IR Inten    --     4.4986                 3.2511                 4.0603

                    70                     71                     72
                     A                      A                      A
 Frequencies --   958.6757               959.6613               962.6921
 Red. masses --     1.6453                 2.4182                 1.4271
 Frc consts  --     0.8909                 1.3121                 0.7793
 IR Inten    --    25.6368                55.7768                36.2758

                    73                     74                     75
                     A                      A                      A
 Frequencies --   965.7867               983.1669               997.2661
 Red. masses --     1.3799                 1.3556                 1.2910
 Frc consts  --     0.7583                 0.7720                 0.7565
 IR Inten    --     4.2749                 4.3746                 0.1201

                    76                     77                     78
                     A                      A                      A
 Frequencies --   999.4395              1024.4714              1029.0691
 Red. masses --     2.2939                 2.0080                 2.6359
 Frc consts  --     1.3500                 1.2417                 1.6447
 IR Inten    --    34.1127                10.1274                 4.1240

                    79                     80                     81
                     A                      A                      A
 Frequencies --  1090.1612              1092.0530              1095.3320
 Red. masses --     5.5722                 1.2158                 3.2230
 Frc consts  --     3.9018                 0.8543                 2.2783
 IR Inten    --   163.7286                31.7880                49.8462

                    82                     83                     84
                     A                      A                      A
 Frequencies --  1123.2825              1128.0580              1139.7591
 Red. masses --     2.4608                 2.1625                 1.4987
 Frc consts  --     1.8294                 1.6213                 1.1471
 IR Inten    --    11.2128                 6.2990                11.5631

                    85                     86                     87
                     A                      A                      A
 Frequencies --  1145.8135              1163.4491              1178.0246
 Red. masses --     1.4240                 1.5641                 1.5528
 Frc consts  --     1.1015                 1.2474                 1.2696
 IR Inten    --     1.7792                 5.3492                 7.4295

                    88                     89                     90
                     A                      A                      A
 Frequencies --  1194.7731              1211.3650              1242.4504
 Red. masses --     1.1594                 1.6965                 1.7211
 Frc consts  --     0.9751                 1.4667                 1.5654
 IR Inten    --     2.6343               241.9707                43.5582

                    91                     92                     93
                     A                      A                      A
 Frequencies --  1246.3070              1255.7194              1269.9268
 Red. masses --     2.6834                 3.1899                 2.6076
 Frc consts  --     2.4558                 2.9636                 2.4777
 IR Inten    --    55.3289                 8.0362                 7.1290

                    94                     95                     96
                     A                      A                      A
 Frequencies --  1271.8886              1294.4212              1304.4180
 Red. masses --     3.2915                 1.7198                 1.9405
 Frc consts  --     3.1372                 1.6978                 1.9454
 IR Inten    --   129.2898                 4.3873                81.2082

                    97                     98                     99
                     A                      A                      A
 Frequencies --  1312.7139              1318.2360              1332.0274
 Red. masses --     1.2480                 1.6405                 2.2776
 Frc consts  --     1.2671                 1.6796                 2.3809
 IR Inten    --    12.6059                47.7900                15.8719

                   100                    101                    102
                     A                      A                      A
 Frequencies --  1341.3220              1357.5221              1372.3236
 Red. masses --     1.7661                 1.6328                 2.1296
 Frc consts  --     1.8721                 1.7728                 2.3630
 IR Inten    --    64.2789                30.9608                31.1149

                   103                    104                    105
                     A                      A                      A
 Frequencies --  1376.1923              1406.4169              1418.4186
 Red. masses --     3.5267                 1.8419                 2.7593
 Frc consts  --     3.9353                 2.1465                 3.2708
 IR Inten    --    21.9815               210.8418                 4.7641

                   106                    107                    108
                     A                      A                      A
 Frequencies --  1422.2180              1425.7022              1427.2211
 Red. masses --     1.0562                 1.0624                 2.2041
 Frc consts  --     1.2587                 1.2724                 2.6453
 IR Inten    --     1.5364                 4.9659                12.6165

                   109                    110                    111
                     A                      A                      A
 Frequencies --  1433.5126              1440.8716              1456.1455
 Red. masses --     2.3576                 3.1029                 3.0626
 Frc consts  --     2.8545                 3.7955                 3.8261
 IR Inten    --    13.9179                42.9818                 8.7429

                   112                    113                    114
                     A                      A                      A
 Frequencies --  1461.1803              1475.8152              1489.6888
 Red. masses --     5.9003                 1.0937                 3.5599
 Frc consts  --     7.4222                 1.4036                 4.6546
 IR Inten    --    41.6887                29.7808                24.3114

                   115                    116                    117
                     A                      A                      A
 Frequencies --  1530.1870              1538.3151              1579.8760
 Red. masses --     3.7945                 2.6312                 6.0926
 Frc consts  --     5.2347                 3.6686                 8.9598
 IR Inten    --    21.5646               179.5599                 1.2187

                   118                    119                    120
                     A                      A                      A
 Frequencies --  1623.2687              1635.5280              1657.6007
 Red. masses --     6.9870                 7.3661                 6.2656
 Frc consts  --    10.8474                11.6092                10.1431
 IR Inten    --     0.3611                 2.5786                18.5243

                   121                    122                    123
                     A                      A                      A
 Frequencies --  1669.2335              1772.5186              3054.4822
 Red. masses --     7.4602                12.0517                 1.0653
 Frc consts  --    12.2472                22.3090                 5.8558
 IR Inten    --    13.4383               218.7020                20.7751

                   124                    125                    126
                     A                      A                      A
 Frequencies --  3059.1629              3065.3405              3101.0399
 Red. masses --     1.0643                 1.0282                 1.0986
 Frc consts  --     5.8685                 5.6922                 6.2246
 IR Inten    --    17.8496                 0.1679                 8.0942

                   127                    128                    129
                     A                      A                      A
 Frequencies --  3121.3271              3177.4940              3179.5687
 Red. masses --     1.1004                 1.1070                 1.0859
 Frc consts  --     6.3165                 6.5850                 6.4682
 IR Inten    --     3.5871                 0.1158                 2.1425

                   130                    131                    132
                     A                      A                      A
 Frequencies --  3192.7108              3193.6771              3195.9571
 Red. masses --     1.1094                 1.0901                 1.0891
 Frc consts  --     6.6631                 6.5510                 6.5544
 IR Inten    --     0.0226                11.8225                14.2939

                   133                    134                    135
                     A                      A                      A
 Frequencies --  3196.7681              3209.2596              3211.4183
 Red. masses --     1.0899                 1.0948                 1.0951
 Frc consts  --     6.5623                 6.6432                 6.6545
 IR Inten    --     1.4233                15.7483                 2.3380

                   136                    137                    138
                     A                      A                      A
 Frequencies --  3212.7585              3218.1207              3238.0825
 Red. masses --     1.0970                 1.0905                 1.0946
 Frc consts  --     6.6716                 6.6542                 6.7621
 IR Inten    --     5.1528                 0.1975                 1.0397

                   139                    140                    141
                     A                      A                      A
 Frequencies --  3253.3539              3254.1664              3481.9337
 Red. masses --     1.0993                 1.0932                 1.0748
 Frc consts  --     6.8556                 6.8208                 7.6773
 IR Inten    --     0.7012                 0.2020                32.8031

 - Thermochemistry -
 -------------------
 Temperature   298.150 Kelvin.  Pressure   1.00000 Atm.
 Atom     1 has atomic number  6 and mass  12.00000

 Molecular mass:   441.09293 amu.
 Principal axes and moments of inertia in atomic units:
                           1         2         3
     Eigenvalues --  ******************************
           X            0.99999   0.00250   0.00456
           Y           -0.00242   0.99987  -0.01600
           Z           -0.00459   0.01599   0.99986
 This molecule is an asymmetric top.
 Rotational symmetry number  1.
 Warning -- assumption of classical behavior for rotation
           may cause significant error
 Rotational temperatures (Kelvin)      0.00829     0.00323     0.00265
 Rotational constants (GHZ):           0.17281     0.06739     0.05523
 Zero-point vibrational energy     972291.9 (Joules/Mol)
                                  232.38335 (Kcal/Mol)
 Warning -- explicit consideration of  43 degrees of freedom as
           vibrations may cause significant error
 Vibrational temperatures:     12.09    21.94    25.14    34.16    36.22
          (Kelvin)             55.27    68.87    81.08    89.48   101.72
                              128.72   152.44   224.46   255.56   278.08
                              295.28   317.04   321.40   336.09   350.81
                              362.23   395.90   418.69   462.65   493.67
                              526.63   548.76   581.46   613.51   630.03
                              633.15   645.24   664.07   682.12   692.62
                              751.35   782.03   816.94   828.31   836.44
                              842.67   861.75   888.17   913.41   931.95
                              963.03   974.41   989.14   992.50  1014.29
                             1059.70  1085.61  1093.84  1121.80  1131.88
                             1139.77  1185.67  1186.85  1200.59  1201.64
                             1234.00  1244.85  1250.99  1263.64  1290.13
                             1299.57  1325.72  1351.29  1373.04  1379.32
                             1380.74  1385.10  1389.55  1414.56  1434.84
                             1437.97  1473.98  1480.60  1568.50  1571.22
                             1575.94  1616.15  1623.02  1639.86  1648.57
                             1673.94  1694.91  1719.01  1742.88  1787.61
                             1793.16  1806.70  1827.14  1829.96  1862.38
                             1876.76  1888.70  1896.65  1916.49  1929.86
                             1953.17  1974.47  1980.03  2023.52  2040.79
                             2046.25  2051.26  2053.45  2062.50  2073.09
                             2095.07  2102.31  2123.37  2143.33  2201.60
                             2213.29  2273.09  2335.52  2353.16  2384.91
                             2401.65  2550.26  4394.71  4401.45  4410.34
                             4461.70  4490.89  4571.70  4574.68  4593.59
                             4594.98  4598.26  4599.43  4617.40  4620.51
                             4622.44  4630.15  4658.87  4680.84  4682.01
                             5009.72

 Zero-point correction=                           0.370326 (Hartree/Particle)
 Thermal correction to Energy=                    0.397043
 Thermal correction to Enthalpy=                  0.397988
 Thermal correction to Gibbs Free Energy=         0.307075
 Sum of electronic and zero-point Energies=          -2068.995197
 Sum of electronic and thermal Energies=             -2068.968479
 Sum of electronic and thermal Enthalpies=           -2068.967535
 Sum of electronic and thermal Free Energies=        -2069.058448

                     E (Thermal)             CV                S
                      KCal/Mol        Cal/Mol-Kelvin    Cal/Mol-Kelvin
 Total                  249.149            102.447            191.342
 Electronic               0.000              0.000              0.000
 Translational            0.889              2.981             44.142
 Rotational               0.889              2.981             37.456
 Vibrational            247.371             96.486            109.745
 Vibration     1          0.593              1.987              8.356
 Vibration     2          0.593              1.986              7.173
 Vibration     3          0.593              1.986              6.903
 Vibration     4          0.593              1.985              6.293
 Vibration     5          0.593              1.985              6.178
 Vibration     6          0.594              1.982              5.339
 Vibration     7          0.595              1.978              4.904
 Vibration     8          0.596              1.975              4.581
 Vibration     9          0.597              1.972              4.386
 Vibration    10          0.598              1.968              4.134
 Vibration    11          0.602              1.957              3.672
 Vibration    12          0.605              1.944              3.342
 Vibration    13          0.620              1.896              2.598
 Vibration    14          0.628              1.870              2.353
 Vibration    15          0.635              1.849              2.196
 Vibration    16          0.640              1.832              2.086
 Vibration    17          0.647              1.810              1.956
 Vibration    18          0.649              1.805              1.931
 Vibration    19          0.654              1.789              1.851
 Vibration    20          0.659              1.773              1.775
 Vibration    21          0.664              1.760              1.718
 Vibration    22          0.677              1.719              1.564
 Vibration    23          0.687              1.690              1.468
 Vibration    24          0.707              1.632              1.302
 Vibration    25          0.722              1.589              1.198
 Vibration    26          0.739              1.542              1.096
 Vibration    27          0.751              1.510              1.034
 Vibration    28          0.769              1.461              0.948
 Vibration    29          0.788              1.413              0.870
 Vibration    30          0.798              1.388              0.833
 Vibration    31          0.800              1.383              0.826
 Vibration    32          0.807              1.364              0.800
 Vibration    33          0.819              1.335              0.762
 Vibration    34          0.831              1.308              0.726
 Vibration    35          0.838              1.291              0.706
 Vibration    36          0.877              1.201              0.605
 Vibration    37          0.899              1.154              0.558
 Vibration    38          0.924              1.101              0.508
 Vibration    39          0.932              1.084              0.493
 Vibration    40          0.938              1.072              0.483
 Vibration    41          0.943              1.062              0.475
 Vibration    42          0.957              1.034              0.451
 Vibration    43          0.977              0.995              0.421

 Normal termination of Gaussian 09 at Thu Sep  1 09:12:09 2022.
