 Gaussian 09, Revision C.01,
 Gaussian 09:  EM64L-G09RevC.01 23-Sep-2011

 -------------------------
 #p opt freq b3lyp/cc-pvdz
 -------------------------

 (Enter /opt/gaussian/l101.exe)
 ---------
 Mol14.log
 ---------
 Charge =  0 Multiplicity = 1

 SCF Done:  E(RB3LYP) =  -1673.21103288     A.U. after   15 cycles
 SCF Done:  E(RB3LYP) =  -1673.22264031     A.U. after   13 cycles
 SCF Done:  E(RB3LYP) =  -1673.22349306     A.U. after   13 cycles
 SCF Done:  E(RB3LYP) =  -1673.22366478     A.U. after   12 cycles
 SCF Done:  E(RB3LYP) =  -1673.22366853     A.U. after   13 cycles
 SCF Done:  E(RB3LYP) =  -1673.22380286     A.U. after   11 cycles
 SCF Done:  E(RB3LYP) =  -1673.22384054     A.U. after   12 cycles
 SCF Done:  E(RB3LYP) =  -1673.22384877     A.U. after   11 cycles
 SCF Done:  E(RB3LYP) =  -1673.22385152     A.U. after   10 cycles
 SCF Done:  E(RB3LYP) =  -1673.22385430     A.U. after   10 cycles
 SCF Done:  E(RB3LYP) =  -1673.22385653     A.U. after   10 cycles
 SCF Done:  E(RB3LYP) =  -1673.22385779     A.U. after    8 cycles
 SCF Done:  E(RB3LYP) =  -1673.22385845     A.U. after   10 cycles
 SCF Done:  E(RB3LYP) =  -1673.22385856     A.U. after    7 cycles
 SCF Done:  E(RB3LYP) =  -1673.22385858     A.U. after    6 cycles
 Optimization completed.
    -- Stationary point found.
 Normal termination of Gaussian 09 at Fri Sep  2 07:38:53 2022.

 -------------------------------------------------------------------
 #P Geom=AllCheck Guess=TCheck SCRF=Check GenChk RB3LYP/CC-pVDZ Freq
 -------------------------------------------------------------------

 Structure from the checkpoint file:  /home/scr/lqcapf-6/Gau-122784.chk
 ---------
 Mol14.log
 ---------
 Charge =  0 Multiplicity = 1

                         Standard orientation:
 ---------------------------------------------------------------------
 Center     Atomic      Atomic             Coordinates (Angstroms)
 Number     Number       Type             X           Y           Z
 ---------------------------------------------------------------------
      1          8           0        0.982335   -1.464539   -0.428813
      2          6           0        1.152643   -0.346889   -0.877165
      3          6           0        2.558774    0.135864   -1.289719
      4          7           0        3.560752   -0.871870   -1.061088
      5          7           0        4.098419   -1.538381   -2.128825
      6          7           0        4.962301   -2.396560   -1.709278
      7          6           0        5.016516   -2.323365   -0.330237
      8          6           0        5.799503   -3.033796    0.596412
      9          6           0        5.638458   -2.724698    1.939946
     10          6           0        4.718562   -1.731824    2.363394
     11          6           0        3.934476   -1.022412    1.462078
     12          6           0        4.103221   -1.338939    0.104168
     13          7           0        0.123353    0.567994   -1.062557
     14          6           0        0.380933    1.941153   -1.516560
     15          6           0        0.853204    2.890792   -0.433070
     16          6           0        1.452035    4.162182   -0.727402
     17          6           0        1.768807    4.879210    0.395338
     18         16           0        1.344537    4.019030    1.842598
     19          6           0        0.733289    2.680169    0.919031
     20          6           0       -1.228569    0.188133   -0.757519
     21          6           0       -2.251950    0.448059   -1.680076
     22          6           0       -3.573856    0.115662   -1.387544
     23          6           0       -3.915027   -0.509803   -0.176032
     24          6           0       -2.875848   -0.786772    0.730425
     25          6           0       -1.554632   -0.443754    0.451383
     26          6           0       -5.321308   -0.870250    0.132433
     27          6           0       -6.397817   -0.061822   -0.271086
     28          6           0       -7.701846   -0.446492    0.045188
     29          7           0       -8.015130   -1.558881    0.724057
     30          6           0       -6.987002   -2.328667    1.107676
     31          6           0       -5.647547   -2.037724    0.843431
     32          1           0        2.587782    0.349771   -2.367643
     33          1           0        2.821245    1.060043   -0.750985
     34          1           0        6.502947   -3.795364    0.256675
     35          1           0        6.227220   -3.254169    2.691740
     36          1           0        4.621835   -1.522841    3.431153
     37          1           0        3.221486   -0.268271    1.797336
     38          1           0        1.104806    1.935965   -2.345525
     39          1           0       -0.553721    2.326601   -1.946842
     40          1           0        1.640868    4.523212   -1.739806
     41          1           0        2.235166    5.860277    0.458440
     42          1           0        0.305920    1.819060    1.426990
     43          1           0       -2.015762    0.894114   -2.648087
     44          1           0       -4.346454    0.310070   -2.133795
     45          1           0       -3.105703   -1.255276    1.689255
     46          1           0       -0.771433   -0.677363    1.170317
     47          1           0       -6.223854    0.874379   -0.805129
     48          1           0       -8.544730    0.182383   -0.261412
     49          1           0       -7.248067   -3.240138    1.656161
     50          1           0       -4.868797   -2.730821    1.166982
 ---------------------------------------------------------------------

 SCF Done:  E(RB3LYP) =  -1673.22385858     A.U. after    1 cycles

 The electronic state is 1-A.
 Alpha  occ. eigenvalues --  -88.92546 -19.12947 -14.41198 -14.39014 -14.38984
 Alpha  occ. eigenvalues --  -14.34793 -14.32815 -10.31079 -10.26271 -10.25923
 Alpha  occ. eigenvalues --  -10.25067 -10.23378 -10.23236 -10.23123 -10.22668
 Alpha  occ. eigenvalues --  -10.22634 -10.22327 -10.22219 -10.21705 -10.21362
 Alpha  occ. eigenvalues --  -10.21262 -10.21145 -10.21125 -10.20936 -10.20818
 Alpha  occ. eigenvalues --  -10.20548 -10.20366 -10.20307 -10.20169 -10.19955
 Alpha  occ. eigenvalues --  -10.19545  -7.98750  -5.95073  -5.94693  -5.94388
 Alpha  occ. eigenvalues --   -1.09476  -1.06187  -0.96980  -0.94446  -0.92570
 Alpha  occ. eigenvalues --   -0.89986  -0.87792  -0.86510  -0.82599  -0.78914
 Alpha  occ. eigenvalues --   -0.78181  -0.77214  -0.77035  -0.76314  -0.75625
 Alpha  occ. eigenvalues --   -0.74731  -0.73932  -0.70610  -0.66585  -0.64974
 Alpha  occ. eigenvalues --   -0.64404  -0.62530  -0.62125  -0.61806  -0.59540
 Alpha  occ. eigenvalues --   -0.59019  -0.57351  -0.56334  -0.54350  -0.53698
 Alpha  occ. eigenvalues --   -0.52928  -0.52575  -0.51799  -0.50912  -0.49595
 Alpha  occ. eigenvalues --   -0.48340  -0.47749  -0.46915  -0.46765  -0.46208
 Alpha  occ. eigenvalues --   -0.46167  -0.45179  -0.44645  -0.44253  -0.43836
 Alpha  occ. eigenvalues --   -0.43729  -0.43130  -0.42868  -0.42425  -0.41034
 Alpha  occ. eigenvalues --   -0.40566  -0.40332  -0.39691  -0.38969  -0.38291
 Alpha  occ. eigenvalues --   -0.37900  -0.37665  -0.37391  -0.36768  -0.36251
 Alpha  occ. eigenvalues --   -0.35776  -0.35654  -0.33086  -0.31700  -0.31198
 Alpha  occ. eigenvalues --   -0.28426  -0.28096  -0.26943  -0.26850  -0.26840
 Alpha  occ. eigenvalues --   -0.26611  -0.25943  -0.25735  -0.25021  -0.23964
 Alpha  occ. eigenvalues --   -0.23534
 Alpha virt. eigenvalues --   -0.05859  -0.04271  -0.03622  -0.02910  -0.01993
 Alpha virt. eigenvalues --   -0.00964   0.00544   0.01314   0.01625   0.02590
 Alpha virt. eigenvalues --    0.03449   0.04267   0.05346   0.05929   0.06559

 Mulliken atomic charges:
              1
     1  O   -0.234228
     2  C    0.132244
     3  C    0.123022
     4  N   -0.227641
     5  N   -0.059008
     6  N   -0.181689
     7  C    0.011522
     8  C    0.045203
     9  C    0.037776
    10  C    0.039938
    11  C    0.026581
    12  C    0.213922
    13  N   -0.289430
    14  C    0.151327
    15  C   -0.030863
    16  C    0.048632
    17  C   -0.100667
    18  S    0.161167
    19  C   -0.138048
    20  C    0.087333
    21  C    0.046234
    22  C    0.023525
    23  C    0.042915
    24  C    0.018337
    25  C    0.078539
    26  C    0.068675
    27  C   -0.041519
    28  C    0.116656
    29  N   -0.172835
    30  C    0.116604
    31  C   -0.041237
    32  H    0.062702
    33  H    0.060587
    34  H   -0.021519
    35  H   -0.026778
    36  H   -0.025794
    37  H   -0.032439
    38  H    0.032266
    39  H    0.049559
    40  H   -0.027295
    41  H    0.019638
    42  H    0.010420
    43  H   -0.023844
    44  H   -0.031268
    45  H   -0.030206
    46  H   -0.017921
    47  H   -0.032401
    48  H   -0.006684
    49  H   -0.005324
    50  H   -0.026683
 Sum of Mulliken atomic charges =   0.00000

 Dipole moment (field-independent basis, Debye):
    X=             -0.0277    Y=              5.8435    Z=              0.9802  Tot=              5.9252
 Quadrupole moment (field-independent basis, Debye-Ang):
   XX=           -217.9992   YY=           -180.4964   ZZ=           -179.2830
   XY=              5.1931   XZ=             19.0457   YZ=            -16.9069

  Exact polarizability: 388.915  -2.351 269.911   4.279 -34.583 271.733
 Approx polarizability: 520.156 -20.400 439.552   5.228 -74.553 528.580

                     1                      2                      3
                     A                      A                      A
 Frequencies --    11.1207                16.0713                19.7542
 Red. masses --     6.4559                 7.3104                 6.0810
 Frc consts  --     0.0005                 0.0011                 0.0014
 IR Inten    --     0.9206                 0.0883                 0.7776

                     4                      5                      6
                     A                      A                      A
 Frequencies --    23.0213                30.5581                35.3984
 Red. masses --     6.1710                 5.2746                 4.1347
 Frc consts  --     0.0019                 0.0029                 0.0031
 IR Inten    --     0.5094                 0.4818                 0.1555

                     7                      8                      9
                     A                      A                      A
 Frequencies --    52.6127                65.5550                70.8917
 Red. masses --     6.1284                 6.8379                 4.1271
 Frc consts  --     0.0100                 0.0173                 0.0122
 IR Inten    --     0.0508                 0.4140                 2.4766

                    10                     11                     12
                     A                      A                      A
 Frequencies --    75.6127                88.7465               130.8208
 Red. masses --     7.4697                 6.7758                 5.7455
 Frc consts  --     0.0252                 0.0314                 0.0579
 IR Inten    --     0.5822                 2.0148                 2.4816

                    13                     14                     15
                     A                      A                      A
 Frequencies --   169.7417               174.8165               187.0764
 Red. masses --     6.2683                 6.7771                 6.6057
 Frc consts  --     0.1064                 0.1220                 0.1362
 IR Inten    --     0.7765                 0.7191                 1.4270

                    16                     17                     18
                     A                      A                      A
 Frequencies --   212.4558               231.1359               237.5632
 Red. masses --     5.6185                 5.6658                 6.0092
 Frc consts  --     0.1494                 0.1783                 0.1998
 IR Inten    --     2.6659                 0.7575                 0.6564

                    19                     20                     21
                     A                      A                      A
 Frequencies --   252.5386               284.7036               319.2258
 Red. masses --     2.7958                 3.0184                 6.2308
 Frc consts  --     0.1051                 0.1442                 0.3741
 IR Inten    --     3.4157                 2.1115                 1.6990

                    22                     23                     24
                     A                      A                      A
 Frequencies --   343.4747               364.9302               386.0764
 Red. masses --     6.1790                 7.7120                 3.4231
 Frc consts  --     0.4295                 0.6051                 0.3006
 IR Inten    --     0.2534                16.2376                 2.4889

                    25                     26                     27
                     A                      A                      A
 Frequencies --   393.4517               415.1744               422.1209
 Red. masses --     2.6491                 5.2205                 3.0273
 Frc consts  --     0.2416                 0.5302                 0.3178
 IR Inten    --     0.3788                 4.4654                 0.8088

                    28                     29                     30
                     A                      A                      A
 Frequencies --   439.6685               443.8735               457.9875
 Red. masses --     2.9192                 4.2279                 4.6751
 Frc consts  --     0.3325                 0.4908                 0.5778
 IR Inten    --     2.4201                 1.9496                 0.0737

                    31                     32                     33
                     A                      A                      A
 Frequencies --   476.3372               523.0838               538.3647
 Red. masses --     4.0704                 3.5688                 5.0419
 Frc consts  --     0.5441                 0.5753                 0.8610
 IR Inten    --     1.7572                10.4484                 4.0332

                    34                     35                     36
                     A                      A                      A
 Frequencies --   568.3760               576.3669               583.3189
 Red. masses --     6.1009                 3.7724                 3.1706
 Frc consts  --     1.1612                 0.7384                 0.6356
 IR Inten    --     2.1181                 0.4140                 3.2418

                    37                     38                     39
                     A                      A                      A
 Frequencies --   585.6207               597.2009               604.0738
 Red. masses --     4.0884                 5.6609                 3.3163
 Frc consts  --     0.8261                 1.1895                 0.7130
 IR Inten    --     0.7582                10.5096                 6.9383

                    40                     41                     42
                     A                      A                      A
 Frequencies --   631.3018               648.7844               668.8208
 Red. masses --     6.2773                 6.6524                 6.7505
 Frc consts  --     1.4740                 1.6498                 1.7791
 IR Inten    --    15.5357                 0.4290                 6.6109

                    43                     44                     45
                     A                      A                      A
 Frequencies --   679.3266               682.6597               683.9838
 Red. masses --     5.7714                 5.5406                 4.7817
 Frc consts  --     1.5692                 1.5213                 1.3180
 IR Inten    --     4.2857                 1.7394                10.9944

                    46                     47                     48
                     A                      A                      A
 Frequencies --   690.5383               719.8821               750.2148
 Red. masses --     1.3095                 5.8321                 3.8386
 Frc consts  --     0.3679                 1.7807                 1.2729
 IR Inten    --     1.5467                26.5859                 8.5823

                    49                     50                     51
                     A                      A                      A
 Frequencies --   760.4567               767.1163               775.1844
 Red. masses --     1.3896                 2.8651                 1.2859
 Frc consts  --     0.4735                 0.9934                 0.4553
 IR Inten    --    46.3321                 1.4034                35.8873

                    52                     53                     54
                     A                      A                      A
 Frequencies --   786.6710               787.3259               798.8701
 Red. masses --     4.4682                 3.5114                 5.6309
 Frc consts  --     1.6292                 1.2825                 2.1173
 IR Inten    --     3.6093                 1.1982                 7.7074

                    55                     56                     57
                     A                      A                      A
 Frequencies --   830.9764               834.1180               834.2753
 Red. masses --     2.0676                 3.4370                 3.5717
 Frc consts  --     0.8412                 1.4089                 1.4647
 IR Inten    --    55.1564                18.2400                34.0091

                    58                     59                     60
                     A                      A                      A
 Frequencies --   838.8784               864.1955               865.6818
 Red. masses --     1.2723                 2.5258                 1.5990
 Frc consts  --     0.5275                 1.1114                 0.7060
 IR Inten    --     4.5918                 9.6874                 0.1639

                    61                     62                     63
                     A                      A                      A
 Frequencies --   868.7716               879.3686               886.9357
 Red. masses --     3.3733                 2.2179                 1.2583
 Frc consts  --     1.5001                 1.0105                 0.5832
 IR Inten    --     8.0799                 8.6947                 0.0366

                    64                     65                     66
                     A                      A                      A
 Frequencies --   893.3217               921.4256               952.2666
 Red. masses --     1.3865                 4.7968                 3.2540
 Frc consts  --     0.6519                 2.3995                 1.7385
 IR Inten    --     0.4136                 3.3672                 6.6333

                    67                     68                     69
                     A                      A                      A
 Frequencies --   958.8325               962.6320               970.3949
 Red. masses --     1.3673                 3.5554                 1.3387
 Frc consts  --     0.7406                 1.9411                 0.7427
 IR Inten    --     1.0577                51.3831                 0.0057

                    70                     71                     72
                     A                      A                      A
 Frequencies --   980.7435               984.2091               997.5243
 Red. masses --     1.3626                 1.3493                 1.2916
 Frc consts  --     0.7722                 0.7701                 0.7572
 IR Inten    --     1.4924                 0.1971                 0.1640

                    73                     74                     75
                     A                      A                      A
 Frequencies --   998.7493              1002.4504              1010.1477
 Red. masses --     2.4081                 1.5173                 6.2837
 Frc consts  --     1.4153                 0.8983                 3.7778
 IR Inten    --    37.3093                 0.1162                 8.4757

                    76                     77                     78
                     A                      A                      A
 Frequencies --  1023.9467              1024.8869              1056.0069
 Red. masses --     2.8327                 2.3084                 3.3883
 Frc consts  --     1.7499                 1.4286                 2.2262
 IR Inten    --     3.8036                 6.0682                 0.8091

                    79                     80                     81
                     A                      A                      A
 Frequencies --  1088.4513              1091.0876              1095.9826
 Red. masses --     1.1067                 1.7206                 3.2082
 Frc consts  --     0.7725                 1.2068                 2.2705
 IR Inten    --     7.6112                 3.6937                90.9849

                    82                     83                     84
                     A                      A                      A
 Frequencies --  1111.6058              1127.4182              1128.5404
 Red. masses --     1.4816                 2.4412                 2.2196
 Frc consts  --     1.0787                 1.8282                 1.6656
 IR Inten    --     0.0993                 4.9339                24.5731

                    85                     86                     87
                     A                      A                      A
 Frequencies --  1141.3660              1146.6806              1159.3819
 Red. masses --     1.5040                 1.4348                 1.6744
 Frc consts  --     1.1543                 1.1115                 1.3261
 IR Inten    --    13.1497                 2.4924                 7.5664

                    88                     89                     90
                     A                      A                      A
 Frequencies --  1177.5867              1202.5153              1213.4296
 Red. masses --     1.5925                 1.1480                 1.4745
 Frc consts  --     1.3011                 0.9781                 1.2792
 IR Inten    --     8.4474                 6.3612                25.8211

                    91                     92                     93
                     A                      A                      A
 Frequencies --  1224.7802              1240.5872              1261.9739
 Red. masses --     1.7386                 1.2621                 2.9265
 Frc consts  --     1.5366                 1.1444                 2.7460
 IR Inten    --   222.3991                 4.5338                63.9113

                    94                     95                     96
                     A                      A                      A
 Frequencies --  1269.3408              1282.4187              1295.4955
 Red. masses --     2.6483                 4.2203                 1.7454
 Frc consts  --     2.5141                 4.0893                 1.7259
 IR Inten    --     9.4141                 2.0249                 3.1214

                    97                     98                     99
                     A                      A                      A
 Frequencies --  1313.6449              1319.7127              1320.7257
 Red. masses --     3.0328                 1.7224                 1.7890
 Frc consts  --     3.0836                 1.7675                 1.8386
 IR Inten    --     1.9371                65.0994                 0.2067

                   100                    101                    102
                     A                      A                      A
 Frequencies --  1327.6481              1340.5945              1352.3334
 Red. masses --     2.2352                 1.5044                 1.5722
 Frc consts  --     2.3213                 1.5929                 1.6941
 IR Inten    --    22.7936                45.1695                33.0302

                   103                    104                    105
                     A                      A                      A
 Frequencies --  1354.5259              1376.2957              1405.0891
 Red. masses --     2.2836                 4.2393                 2.0110
 Frc consts  --     2.4686                 4.7312                 2.3392
 IR Inten    --     5.9704                19.7070               203.8042

                   106                    107                    108
                     A                      A                      A
 Frequencies --  1419.4293              1429.5335              1431.9770
 Red. masses --     2.4495                 3.2675                 2.2867
 Frc consts  --     2.9078                 3.9342                 2.7627
 IR Inten    --    14.6784                 3.2160                10.9093

                   109                    110                    111
                     A                      A                      A
 Frequencies --  1437.7680              1441.3458              1451.1126
 Red. masses --     1.8233                 2.8498                 2.8708
 Frc consts  --     2.2206                 3.4881                 3.5616
 IR Inten    --     9.2802                36.4162                32.5427

                   112                    113                    114
                     A                      A                      A
 Frequencies --  1467.6856              1471.4650              1490.0437
 Red. masses --     1.7714                 2.0447                 3.5806
 Frc consts  --     2.2482                 2.6084                 4.6838
 IR Inten    --    18.4696                22.9946                23.3525

                   115                    116                    117
                     A                      A                      A
 Frequencies --  1516.3654              1530.1031              1548.7297
 Red. masses --     2.2306                 3.8245                 2.8907
 Frc consts  --     3.0220                 5.2755                 4.0851
 IR Inten    --    69.2097                19.4350                70.0378

                   118                    119                    120
                     A                      A                      A
 Frequencies --  1590.2429              1592.9829              1621.0101
 Red. masses --     7.0160                 5.8391                 7.4874
 Frc consts  --    10.4536                 8.7300                11.5919
 IR Inten    --    16.4415                 1.0008                 5.1866

                   121                    122                    123
                     A                      A                      A
 Frequencies --  1635.9934              1644.3906              1658.0342
 Red. masses --     7.3801                 5.8184                 6.2516
 Frc consts  --    11.6379                 9.2696                10.1258
 IR Inten    --     2.4579               122.7213                20.1320

                   124                    125                    126
                     A                      A                      A
 Frequencies --  1669.2151              1778.6110              3053.3778
 Red. masses --     7.4907                12.1015                 1.0632
 Frc consts  --    12.2970                22.5554                 5.8401
 IR Inten    --    12.8943               225.9556                22.0292

                   127                    128                    129
                     A                      A                      A
 Frequencies --  3061.7099              3102.8634              3117.5026
 Red. masses --     1.0639                 1.0989                 1.1019
 Frc consts  --     5.8759                 6.2335                 6.3098
 IR Inten    --    19.0202                10.0582                 3.1402

                   130                    131                    132
                     A                      A                      A
 Frequencies --  3149.8144              3152.7034              3179.1741
 Red. masses --     1.0878                 1.0912                 1.0857
 Frc consts  --     6.3589                 6.3902                 6.4654
 IR Inten    --    30.2992                28.8245                 1.6633

                   133                    134                    135
                     A                      A                      A
 Frequencies --  3182.9446              3189.3748              3193.0449
 Red. masses --     1.0873                 1.0904                 1.0897
 Frc consts  --     6.4901                 6.5351                 6.5459
 IR Inten    --    14.1819                 4.2999                11.5458

                   136                    137                    138
                     A                      A                      A
 Frequencies --  3193.3423              3197.7678              3200.5920
 Red. masses --     1.0934                 1.0927                 1.0947
 Frc consts  --     6.5692                 6.5833                 6.6073
 IR Inten    --     5.5049                 9.5896                 6.9530

                   139                    140                    141
                     A                      A                      A
 Frequencies --  3201.6587              3205.7475              3211.8745
 Red. masses --     1.0910                 1.0953                 1.0969
 Frc consts  --     6.5890                 6.6318                 6.6673
 IR Inten    --     3.4314                14.4157                 8.6392

                   142                    143                    144
                     A                      A                      A
 Frequencies --  3230.7845              3251.8729              3256.4815
 Red. masses --     1.0936                 1.0978                 1.0951
 Frc consts  --     6.7258                 6.8397                 6.8425
 IR Inten    --     4.0263                 0.5022                 1.2192

 - Thermochemistry -
 -------------------
 Temperature   298.150 Kelvin.  Pressure   1.00000 Atm.
 Atom     1 has atomic number  8 and mass  15.99491

 Molecular mass:   425.13103 amu.
 Principal axes and moments of inertia in atomic units:
                           1         2         3
     Eigenvalues --  9544.82252********************
           X            0.99999   0.00098   0.00416
           Y           -0.00085   0.99952  -0.03100
           Z           -0.00419   0.03100   0.99951
 This molecule is an asymmetric top.
 Rotational symmetry number  1.
 Warning -- assumption of classical behavior for rotation
           may cause significant error
 Rotational temperatures (Kelvin)      0.00907     0.00315     0.00267
 Rotational constants (GHZ):           0.18908     0.06564     0.05553
 Zero-point vibrational energy    1012092.7 (Joules/Mol)
                                  241.89595 (Kcal/Mol)
 Warning -- explicit consideration of  39 degrees of freedom as
           vibrations may cause significant error
 Vibrational temperatures:     16.00    23.12    28.42    33.12    43.97
          (Kelvin)             50.93    75.70    94.32   102.00   108.79
                              127.69   188.22   244.22   251.52   269.16
                              305.68   332.55   341.80   363.35   409.62
                              459.29   494.18   525.05   555.48   566.09
                              597.34   607.34   632.58   638.63   658.94
                              685.34   752.60   774.59   817.77   829.26
                              839.26   842.58   859.24   869.13   908.30
                              933.45   962.28   977.40   982.19   984.10
                              993.53  1035.75  1079.39  1094.13  1103.71
                             1115.32  1131.84  1132.79  1149.39  1195.59
                             1200.11  1200.33  1206.96  1243.38  1245.52
                             1249.97  1265.21  1276.10  1285.29  1325.72
                             1370.10  1379.54  1385.01  1396.18  1411.07
                             1416.06  1435.21  1436.98  1442.30  1453.38
                             1473.23  1474.58  1519.36  1566.04  1569.83
                             1576.87  1599.35  1622.10  1623.72  1642.17
                             1649.82  1668.09  1694.28  1730.15  1745.85
                             1762.18  1784.93  1815.70  1826.30  1845.11
                             1863.93  1890.04  1898.77  1900.23  1910.19
                             1928.81  1945.70  1948.86  1980.18  2021.61
                             2042.24  2056.78  2060.29  2068.62  2073.77
                             2087.82  2111.67  2117.11  2143.84  2181.71
                             2201.47  2228.27  2288.00  2291.94  2332.27
                             2353.83  2365.91  2385.54  2401.63  2559.02
                             4393.12  4405.11  4464.32  4485.39  4531.87
                             4536.03  4574.12  4579.54  4588.79  4594.07
                             4594.50  4600.87  4604.93  4606.47  4612.35
                             4621.17  4648.37  4678.71  4685.34

 Zero-point correction=                           0.385486 (Hartree/Particle)
 Thermal correction to Energy=                    0.410653
 Thermal correction to Enthalpy=                  0.411597
 Thermal correction to Gibbs Free Energy=         0.324408
 Sum of electronic and zero-point Energies=          -1672.838373
 Sum of electronic and thermal Energies=             -1672.813206
 Sum of electronic and thermal Enthalpies=           -1672.812262
 Sum of electronic and thermal Free Energies=        -1672.899451

                     E (Thermal)             CV                S
                      KCal/Mol        Cal/Mol-Kelvin    Cal/Mol-Kelvin
 Total                  257.688             98.293            183.505
 Electronic               0.000              0.000              0.000
 Translational            0.889              2.981             44.032
 Rotational               0.889              2.981             37.387
 Vibrational            255.911             92.331            102.086
 Vibration     1          0.593              1.987              7.800
 Vibration     2          0.593              1.986              7.069
 Vibration     3          0.593              1.986              6.659
 Vibration     4          0.593              1.985              6.355
 Vibration     5          0.594              1.984              5.793
 Vibration     6          0.594              1.982              5.501
 Vibration     7          0.596              1.977              4.717
 Vibration     8          0.597              1.971              4.283
 Vibration     9          0.598              1.968              4.128
 Vibration    10          0.599              1.965              4.002
 Vibration    11          0.602              1.957              3.688
 Vibration    12          0.612              1.923              2.934
 Vibration    13          0.625              1.880              2.438
 Vibration    14          0.627              1.873              2.383
 Vibration    15          0.632              1.858              2.257
 Vibration    16          0.643              1.822              2.022
 Vibration    17          0.653              1.793              1.870
 Vibration    18          0.656              1.783              1.821
 Vibration    19          0.664              1.759              1.713
 Vibration    20          0.683              1.702              1.505
 Vibration    21          0.705              1.637              1.314
 Vibration    22          0.722              1.589              1.196
 Vibration    23          0.738              1.544              1.101
 Vibration    24          0.755              1.500              1.015
 Vibration    25          0.761              1.484              0.987
 Vibration    26          0.779              1.437              0.909
 Vibration    27          0.784              1.422              0.885
 Vibration    28          0.800              1.384              0.828
 Vibration    29          0.803              1.374              0.815
 Vibration    30          0.816              1.343              0.772
 Vibration    31          0.833              1.303              0.720
 Vibration    32          0.878              1.199              0.603
 Vibration    33          0.893              1.165              0.569
 Vibration    34          0.924              1.100              0.507
 Vibration    35          0.933              1.082              0.492
 Vibration    36          0.940              1.067              0.479
 Vibration    37          0.943              1.062              0.475
 Vibration    38          0.955              1.038              0.454
 Vibration    39          0.963              1.023              0.443

 Normal termination of Gaussian 09 at Fri Sep  2 10:12:36 2022.
