 Gaussian 09, Revision C.01,
 Gaussian 09:  EM64L-G09RevC.01 23-Sep-2011

 -------------------------
 #p opt freq b3lyp/cc-pvdz
 -------------------------

 (Enter /opt/gaussian/l101.exe)
 ---------
 Mol13.log
 ---------
 Charge =  0 Multiplicity = 1

 SCF Done:  E(RB3LYP) =  -2146.70333265     A.U. after   16 cycles
 SCF Done:  E(RB3LYP) =  -2146.74232749     A.U. after   13 cycles
 SCF Done:  E(RB3LYP) =  -2146.75125143     A.U. after   13 cycles
 SCF Done:  E(RB3LYP) =  -2146.75384207     A.U. after   13 cycles
 SCF Done:  E(RB3LYP) =  -2146.75415345     A.U. after   12 cycles
 SCF Done:  E(RB3LYP) =  -2146.75430861     A.U. after   13 cycles
 SCF Done:  E(RB3LYP) =  -2146.75444429     A.U. after   12 cycles
 SCF Done:  E(RB3LYP) =  -2146.75453737     A.U. after   12 cycles
 SCF Done:  E(RB3LYP) =  -2146.75462926     A.U. after   12 cycles
 SCF Done:  E(RB3LYP) =  -2146.75469420     A.U. after   12 cycles
 SCF Done:  E(RB3LYP) =  -2146.75535093     A.U. after   10 cycles
 SCF Done:  E(RB3LYP) =  -2146.75535098     A.U. after    9 cycles
 SCF Done:  E(RB3LYP) =  -2146.75535098     A.U. after    8 cycles
 SCF Done:  E(RB3LYP) =  -2146.75535104     A.U. after    8 cycles
 SCF Done:  E(RB3LYP) =  -2146.75535109     A.U. after    8 cycles
 SCF Done:  E(RB3LYP) =  -2146.75535112     A.U. after    7 cycles
 SCF Done:  E(RB3LYP) =  -2146.75535110     A.U. after    7 cycles
 SCF Done:  E(RB3LYP) =  -2146.75535106     A.U. after    7 cycles
 SCF Done:  E(RB3LYP) =  -2146.75535103     A.U. after    7 cycles
 Optimization completed.
    -- Stationary point found.
 Normal termination of Gaussian 09 at Fri Sep  2 01:54:31 2022.

 -------------------------------------------------------------------
 #P Geom=AllCheck Guess=TCheck SCRF=Check GenChk RB3LYP/CC-pVDZ Freq
 -------------------------------------------------------------------

 Structure from the checkpoint file:  /home/scr/lqcapf-6/Gau-85102.chk
 ---------
 Mol13.log
 ---------
 Charge =  0 Multiplicity = 1

                         Standard orientation:
 ---------------------------------------------------------------------
 Center     Atomic      Atomic             Coordinates (Angstroms)
 Number     Number       Type             X           Y           Z
 ---------------------------------------------------------------------
      1          8           0        1.239641   -1.230785   -0.657860
      2          6           0        1.581100   -0.108770   -0.981650
      3          6           0        3.076383    0.234806   -1.150203
      4          7           0        3.914839   -0.920339   -0.962285
      5          7           0        4.507098   -1.498586   -2.052793
      6          7           0        5.205902   -2.512485   -1.675441
      7          6           0        5.089171   -2.637229   -0.304121
      8          6           0        5.660621   -3.565437    0.584016
      9          6           0        5.363760   -3.426390    1.932553
     10          6           0        4.514143   -2.390339    2.397756
     11          6           0        3.937839   -1.467098    1.534349
     12          6           0        4.244939   -1.610927    0.171330
     13          7           0        0.687113    0.929559   -1.222765
     14          6           0        1.165620    2.291281   -1.496456
     15          6           0        1.595592    3.091798   -0.283637
     16          6           0        2.283571    4.347471   -0.393547
     17          6           0        2.566402    4.911824    0.821334
     18         16           0        2.002504    3.923355    2.132883
     19          6           0        1.378056    2.738069    1.026394
     20          6           0       -0.729388    0.710538   -1.154633
     21          6           0       -1.306648   -0.488198   -1.608542
     22          6           0       -2.689316   -0.656045   -1.571767
     23          6           0       -3.526978    0.350651   -1.076427
     24          6           0       -2.952982    1.543302   -0.623484
     25          6           0       -1.570575    1.724507   -0.666403
     26          7           0       -4.945328    0.136107   -1.072664
     27         16           0       -5.687926   -0.407960    0.406507
     28          8           0       -4.854158   -0.051886    1.583467
     29          8           0       -7.088361    0.061604    0.287254
     30          6           0       -5.634997   -2.187316    0.223679
     31          6           0       -5.680526   -3.001980    1.495664
     32          6           0       -4.410570   -2.938683    0.691293
     33          1           0        3.278518    0.586583   -2.171666
     34          1           0        3.368034    1.033778   -0.450608
     35          1           0        6.311165   -4.358257    0.211855
     36          1           0        5.786877   -4.126914    2.655359
     37          1           0        4.302830   -2.321094    3.467159
     38          1           0        3.273115   -0.683480    1.899319
     39          1           0        1.997136    2.248153   -2.216690
     40          1           0        0.355458    2.817075   -2.022994
     41          1           0        2.556788    4.807712   -1.344554
     42          1           0        3.078795    5.850044    1.024458
     43          1           0        0.877158    1.849432    1.405209
     44          1           0       -0.676834   -1.285848   -1.992945
     45          1           0       -3.136428   -1.577398   -1.947993
     46          1           0       -3.588334    2.330042   -0.212483
     47          1           0       -1.149871    2.655417   -0.285289
     48          1           0       -5.480800    0.977769   -1.300945
     49          1           0       -6.191716   -2.507549   -0.658591
     50          1           0       -5.697380   -2.449749    2.437193
     51          1           0       -6.287125   -3.909307    1.468653
     52          1           0       -4.113039   -3.804493    0.095758
     53          1           0       -3.593252   -2.344493    1.103330
 ---------------------------------------------------------------------

 SCF Done:  E(RB3LYP) =  -2146.75535103     A.U. after    1 cycles

 The electronic state is 1-A.
 Alpha  occ. eigenvalues --  -89.10425 -88.92672 -19.13392 -19.13256 -19.13036
 Alpha  occ. eigenvalues --  -14.41277 -14.39391 -14.39096 -14.36671 -14.34884
 Alpha  occ. eigenvalues --  -10.31343 -10.26344 -10.26044 -10.25113 -10.23898
 Alpha  occ. eigenvalues --  -10.23823 -10.23519 -10.23297 -10.23287 -10.22427
 Alpha  occ. eigenvalues --  -10.21718 -10.21696 -10.21491 -10.21195 -10.20957
 Alpha  occ. eigenvalues --  -10.20862 -10.20571 -10.20531 -10.20453 -10.20157
 Alpha  occ. eigenvalues --  -10.19979 -10.19562  -8.13776  -7.98875  -6.10116
 Alpha  occ. eigenvalues --   -6.10073  -6.09903  -5.95198  -5.94817  -5.94511
 Alpha  occ. eigenvalues --   -1.10211  -1.09560  -1.06464  -0.99435  -0.97260
 Alpha  occ. eigenvalues --   -0.93476  -0.92646  -0.90122  -0.88863  -0.86547
 Alpha  occ. eigenvalues --   -0.85905  -0.79208  -0.78332  -0.77276  -0.76637
 Alpha  occ. eigenvalues --   -0.75637  -0.74849  -0.73944  -0.70840  -0.70072
 Alpha  occ. eigenvalues --   -0.65320  -0.64952  -0.63064  -0.62402  -0.62183
 Alpha  occ. eigenvalues --   -0.60297  -0.59077  -0.58425  -0.57460  -0.56465
 Alpha  occ. eigenvalues --   -0.54870  -0.53995  -0.53061  -0.52832  -0.52678
 Alpha  occ. eigenvalues --   -0.52121  -0.50758  -0.50315  -0.49715  -0.48240
 Alpha  occ. eigenvalues --   -0.47066  -0.46827  -0.46647  -0.45856  -0.44835
 Alpha  occ. eigenvalues --   -0.44732  -0.44184  -0.43852  -0.43532  -0.43359
 Alpha  occ. eigenvalues --   -0.42807  -0.42634  -0.41858  -0.41053  -0.40244
 Alpha  occ. eigenvalues --   -0.39577  -0.38901  -0.38703  -0.38286  -0.37730
 Alpha  occ. eigenvalues --   -0.37178  -0.36799  -0.36341  -0.35690  -0.34454
 Alpha  occ. eigenvalues --   -0.33831  -0.33586  -0.33169  -0.31475  -0.31326
 Alpha  occ. eigenvalues --   -0.31169  -0.30006  -0.29437  -0.28303  -0.27887
 Alpha  occ. eigenvalues --   -0.26992  -0.26760  -0.26720  -0.25909  -0.25058
 Alpha  occ. eigenvalues --   -0.23737  -0.23481
 Alpha virt. eigenvalues --   -0.04324  -0.03955  -0.03707  -0.02552   0.00444
 Alpha virt. eigenvalues --    0.00745   0.01416   0.02100   0.03425   0.04129
 Alpha virt. eigenvalues --    0.04479   0.04683   0.05595   0.05912   0.06599

 Mulliken atomic charges:
              1
     1  O   -0.237619
     2  C    0.133765
     3  C    0.122009
     4  N   -0.227704
     5  N   -0.061178
     6  N   -0.181742
     7  C    0.011197
     8  C    0.044687
     9  C    0.037895
    10  C    0.039664
    11  C    0.029348
    12  C    0.213360
    13  N   -0.279941
    14  C    0.140118
    15  C   -0.027637
    16  C    0.047774
    17  C   -0.099661
    18  S    0.166780
    19  C   -0.150515
    20  C    0.105806
    21  C    0.075255
    22  C    0.087072
    23  C   -0.002358
    24  C    0.086442
    25  C    0.015126
    26  N   -0.316403
    27  S    0.914377
    28  O   -0.443912
    29  O   -0.454167
    30  C   -0.207435
    31  C    0.017108
    32  C    0.010994
    33  H    0.062194
    34  H    0.061404
    35  H   -0.021906
    36  H   -0.026638
    37  H   -0.024669
    38  H   -0.031213
    39  H    0.038330
    40  H    0.048423
    41  H   -0.026478
    42  H    0.020695
    43  H    0.026019
    44  H   -0.009645
    45  H   -0.031088
    46  H   -0.032401
    47  H   -0.013669
    48  H    0.122447
    49  H    0.037708
    50  H    0.055063
    51  H    0.040040
    52  H    0.037330
    53  H    0.059550
 Sum of Mulliken atomic charges =   0.00000

 Dipole moment (field-independent basis, Debye):
    X=              0.7207    Y=              3.2052    Z=             -0.0885  Tot=              3.2864
 Quadrupole moment (field-independent basis, Debye-Ang):
   XX=           -230.6327   YY=           -176.6742   ZZ=           -199.1657
   XY=             27.7980   XZ=             22.1105   YZ=            -13.6618

  Exact polarizability: 340.303  -9.923 312.681  -1.788  -6.290 268.760
 Approx polarizability: 469.879 -32.441 496.006 -11.908  -2.550 503.439

                     1                      2                      3
                     A                      A                      A
 Frequencies --     7.3356                10.9120                15.8365
 Red. masses --     6.5421                 6.0518                 6.1367
 Frc consts  --     0.0002                 0.0004                 0.0009
 IR Inten    --     1.2986                 1.2261                 0.1169

                     4                      5                      6
                     A                      A                      A
 Frequencies --    21.9608                24.0318                34.9755
 Red. masses --     7.1780                 7.3876                 4.4286
 Frc consts  --     0.0020                 0.0025                 0.0032
 IR Inten    --     2.5420                 0.0484                 0.1635

                     7                      8                      9
                     A                      A                      A
 Frequencies --    40.9578                50.6371                54.7910
 Red. masses --     5.5719                 4.5561                 7.6613
 Frc consts  --     0.0055                 0.0069                 0.0136
 IR Inten    --     0.4294                 0.7638                 0.8251

                    10                     11                     12
                     A                      A                      A
 Frequencies --    68.0897                75.8359                84.7035
 Red. masses --     5.9217                 4.0363                 6.0113
 Frc consts  --     0.0162                 0.0137                 0.0254
 IR Inten    --     2.1293                 0.5854                 0.4764

                    13                     14                     15
                     A                      A                      A
 Frequencies --   106.9150               154.6986               157.4305
 Red. masses --     4.6953                 6.7988                 4.4237
 Frc consts  --     0.0316                 0.0959                 0.0646
 IR Inten    --     2.0742                 0.7828                 1.4430

                    16                     17                     18
                     A                      A                      A
 Frequencies --   182.4742               198.2778               214.7527
 Red. masses --     6.3590                 4.9330                 5.4583
 Frc consts  --     0.1248                 0.1143                 0.1483
 IR Inten    --     1.5057                 1.6338                 0.4958

                    19                     20                     21
                     A                      A                      A
 Frequencies --   223.8531               228.7721               233.6186
 Red. masses --     7.0853                 5.7401                 6.2952
 Frc consts  --     0.2092                 0.1770                 0.2024
 IR Inten    --     4.8985                 0.7678                 0.5696

                    22                     23                     24
                     A                      A                      A
 Frequencies --   254.6371               274.6821               289.2315
 Red. masses --     3.1795                 4.5649                 4.1553
 Frc consts  --     0.1215                 0.2029                 0.2048
 IR Inten    --     2.4354                 6.3667                 1.4346

                    25                     26                     27
                     A                      A                      A
 Frequencies --   312.6758               345.4896               359.4466
 Red. masses --     4.9339                 6.4252                 3.6329
 Frc consts  --     0.2842                 0.4519                 0.2766
 IR Inten    --     8.5783                 0.7949                 1.8931

                    28                     29                     30
                     A                      A                      A
 Frequencies --   373.9177               385.8391               413.2086
 Red. masses --     8.3388                 4.9183                 3.4652
 Frc consts  --     0.6869                 0.4314                 0.3486
 IR Inten    --    16.6973                 2.5636                 8.5725

                    31                     32                     33
                     A                      A                      A
 Frequencies --   425.8778               438.9972               448.6199
 Red. masses --     3.0573                 2.8853                 3.1558
 Frc consts  --     0.3267                 0.3276                 0.3742
 IR Inten    --     1.9578                 2.2214                 6.4618

                    34                     35                     36
                     A                      A                      A
 Frequencies --   458.3135               475.8274               476.1413
 Red. masses --     4.6902                 4.1507                 4.4724
 Frc consts  --     0.5805                 0.5537                 0.5974
 IR Inten    --     0.0406                11.5041                18.9387

                    37                     38                     39
                     A                      A                      A
 Frequencies --   500.4378               530.0017               547.3896
 Red. masses --     5.1898                 4.6578                 5.0167
 Frc consts  --     0.7658                 0.7709                 0.8856
 IR Inten    --     9.1672                20.2567                24.0077

                    40                     41                     42
                     A                      A                      A
 Frequencies --   566.5501               574.8513               584.9987
 Red. masses --     3.8963                 4.1651                 4.0390
 Frc consts  --     0.7369                 0.8109                 0.8144
 IR Inten    --     4.8904                17.7174                 8.5541

                    43                     44                     45
                     A                      A                      A
 Frequencies --   589.8934               598.7177               605.7351
 Red. masses --     4.5469                 4.4563                 3.3789
 Frc consts  --     0.9322                 0.9412                 0.7305
 IR Inten    --    16.8277                67.3250                27.9773

                    46                     47                     48
                     A                      A                      A
 Frequencies --   632.9723               646.8058               660.0725
 Red. masses --     5.8127                 6.0658                 3.1339
 Frc consts  --     1.3721                 1.4952                 0.8045
 IR Inten    --    18.0469                 0.7855                64.0194

                    49                     50                     51
                     A                      A                      A
 Frequencies --   670.5387               680.4451               693.3865
 Red. masses --     7.2468                 5.7191                 5.0275
 Frc consts  --     1.9197                 1.5601                 1.4241
 IR Inten    --     4.9450                 1.8651                22.4040

                    52                     53                     54
                     A                      A                      A
 Frequencies --   697.6118               732.9061               758.1695
 Red. masses --     1.2720                 3.7047                 4.1128
 Frc consts  --     0.3647                 1.1725                 1.3929
 IR Inten    --     1.4322                 6.6461                25.4837

                    55                     56                     57
                     A                      A                      A
 Frequencies --   760.1862               777.6373               783.0885
 Red. masses --     1.4665                 1.0792                 1.2582
 Frc consts  --     0.4993                 0.3845                 0.4546
 IR Inten    --    34.8666                 3.9251                35.4407

                    58                     59                     60
                     A                      A                      A
 Frequencies --   786.5450               792.9702               818.4739
 Red. masses --     3.3956                 4.7557                 1.2237
 Frc consts  --     1.2377                 1.7619                 0.4830
 IR Inten    --     1.3804                 6.2189                12.4083

                    61                     62                     63
                     A                      A                      A
 Frequencies --   827.1423               831.1185               833.3228
 Red. masses --     1.7726                 3.9450                 2.2635
 Frc consts  --     0.7145                 1.6056                 0.9261
 IR Inten    --    29.9401                47.5244                 9.5593

                    64                     65                     66
                     A                      A                      A
 Frequencies --   833.9865               861.9977               865.1023
 Red. masses --     2.1425                 3.9264                 1.6264
 Frc consts  --     0.8780                 1.7189                 0.7172
 IR Inten    --    15.3921                81.1404                 4.4991

                    67                     68                     69
                     A                      A                      A
 Frequencies --   867.5250               878.2824               892.3506
 Red. masses --     3.8468                 3.7728                 1.7553
 Frc consts  --     1.7058                 1.7147                 0.8235
 IR Inten    --    13.0474                 3.5737                36.0955

                    70                     71                     72
                     A                      A                      A
 Frequencies --   894.9793               909.8900               921.4826
 Red. masses --     1.5258                 3.6615                 4.7928
 Frc consts  --     0.7201                 1.7860                 2.3978
 IR Inten    --    11.7374                45.8475                 3.6318

                    73                     74                     75
                     A                      A                      A
 Frequencies --   934.1485               951.6835               958.7882
 Red. masses --     4.2967                 3.2812                 1.3732
 Frc consts  --     2.2091                 1.7509                 0.7437
 IR Inten    --     5.3046                 5.5779                 1.8206

                    76                     77                     78
                     A                      A                      A
 Frequencies --   961.6670               964.6064               982.0940
 Red. masses --     3.4577                 1.3774                 1.3541
 Frc consts  --     1.8840                 0.7551                 0.7695
 IR Inten    --    72.9598                 3.1837                 4.1308

                    79                     80                     81
                     A                      A                      A
 Frequencies --   997.7156              1002.2919              1024.3366
 Red. masses --     1.2913                 2.2960                 2.0050
 Frc consts  --     0.7574                 1.3590                 1.2395
 IR Inten    --     0.0595                35.2639                 8.9461

                    82                     83                     84
                     A                      A                      A
 Frequencies --  1029.6945              1051.8665              1062.8779
 Red. masses --     2.6409                 1.6812                 1.1943
 Frc consts  --     1.6497                 1.0959                 0.7949
 IR Inten    --     4.0790                28.7335                 7.9914

                    85                     86                     87
                     A                      A                      A
 Frequencies --  1085.0798              1085.7235              1088.9106
 Red. masses --     1.3784                 3.5181                 1.1102
 Frc consts  --     0.9562                 2.4434                 0.7756
 IR Inten    --     2.2564               136.1226                 7.4971

                    88                     89                     90
                     A                      A                      A
 Frequencies --  1095.6286              1096.0842              1123.1224
 Red. masses --     3.1983                 1.1688                 2.6595
 Frc consts  --     2.2620                 0.8273                 1.9765
 IR Inten    --    63.6993                 1.2040                15.9176

                    91                     92                     93
                     A                      A                      A
 Frequencies --  1127.8438              1138.9742              1146.5650
 Red. masses --     2.0896                 1.5002                 1.4278
 Frc consts  --     1.5661                 1.1466                 1.1059
 IR Inten    --     5.5617                11.1000                 2.3220

                    94                     95                     96
                     A                      A                      A
 Frequencies --  1162.9010              1177.6580              1184.3544
 Red. masses --     1.7141                 1.5910                 1.3220
 Frc consts  --     1.3658                 1.3000                 1.0925
 IR Inten    --    14.4509                 8.3705                 0.1655

                    97                     98                     99
                     A                      A                      A
 Frequencies --  1194.5669              1207.5816              1215.0326
 Red. masses --     1.1497                 1.7367                 1.4922
 Frc consts  --     0.9666                 1.4921                 1.2979
 IR Inten    --     1.7701                 7.9354                34.1742

                   100                    101                    102
                     A                      A                      A
 Frequencies --  1219.0839              1249.7837              1258.3706
 Red. masses --     1.6811                 2.7130                 3.4246
 Frc consts  --     1.4720                 2.4967                 3.1950
 IR Inten    --   229.8565                62.7640                45.7752

                   103                    104                    105
                     A                      A                      A
 Frequencies --  1263.4410              1269.7957              1295.7374
 Red. masses --     4.7677                 2.6687                 1.7292
 Frc consts  --     4.4841                 2.5352                 1.7106
 IR Inten    --    74.1866                 9.5683                 7.3242

                   106                    107                    108
                     A                      A                      A
 Frequencies --  1296.9526              1313.0212              1319.0069
 Red. masses --     1.7997                 1.8103                 1.6907
 Frc consts  --     1.7836                 1.8388                 1.7331
 IR Inten    --    14.4842                49.2712                57.1477

                   109                    110                    111
                     A                      A                      A
 Frequencies --  1333.3350              1343.9299              1351.1061
 Red. masses --     2.3241                 1.6808                 1.5798
 Frc consts  --     2.4343                 1.7886                 1.6991
 IR Inten    --    10.9485                44.7849                49.5604

                   112                    113                    114
                     A                      A                      A
 Frequencies --  1376.0880              1379.7871              1404.9291
 Red. masses --     4.2815                 2.0269                 1.9853
 Frc consts  --     4.7768                 2.2736                 2.3087
 IR Inten    --    21.4791                24.4190               216.0767

                   115                    116                    117
                     A                      A                      A
 Frequencies --  1420.8772              1425.1803              1429.2368
 Red. masses --     2.4608                 1.0874                 3.2999
 Frc consts  --     2.9271                 1.3013                 3.9716
 IR Inten    --    19.9001                 5.7448                 2.2858

                   118                    119                    120
                     A                      A                      A
 Frequencies --  1436.5938              1441.3709              1459.4658
 Red. masses --     1.8482                 2.6981                 2.9272
 Frc consts  --     2.2473                 3.3026                 3.6736
 IR Inten    --    11.0860                45.7357                 7.6195

                   121                    122                    123
                     A                      A                      A
 Frequencies --  1468.7325              1471.1396              1472.8362
 Red. masses --     2.4629                 1.4056                 1.5418
 Frc consts  --     3.1302                 1.7923                 1.9705
 IR Inten    --     7.1791                 0.7844                23.0788

                   124                    125                    126
                     A                      A                      A
 Frequencies --  1489.8128              1530.2092              1539.2140
 Red. masses --     3.5811                 3.8136                 2.6401
 Frc consts  --     4.6831                 5.2612                 3.6853
 IR Inten    --    23.6416                20.5304               189.4446

                   127                    128                    129
                     A                      A                      A
 Frequencies --  1592.5786              1625.8524              1635.9914
 Red. masses --     5.8183                 6.9334                 7.3745
 Frc consts  --     8.6946                10.7984                11.6290
 IR Inten    --     0.2396                 0.1376                 2.5155

                   130                    131                    132
                     A                      A                      A
 Frequencies --  1658.9003              1669.0962              1774.2467
 Red. masses --     6.2604                 7.4753                12.0916
 Frc consts  --    10.1507                12.2699                22.4266
 IR Inten    --    14.3936                13.2108               207.0659

                   133                    134                    135
                     A                      A                      A
 Frequencies --  3050.6687              3057.3751              3086.3700
 Red. masses --     1.0634                 1.0624                 1.1015
 Frc consts  --     5.8307                 5.8509                 6.1820
 IR Inten    --    20.1450                19.8965                10.2775

                   136                    137                    138
                     A                      A                      A
 Frequencies --  3120.1858              3136.6374              3138.7331
 Red. masses --     1.1013                 1.0510                 1.0583
 Frc consts  --     6.3169                 6.0920                 6.1428
 IR Inten    --     3.8556                 4.9175                 5.9561

                   139                    140                    141
                     A                      A                      A
 Frequencies --  3179.5936              3190.8499              3191.5530
 Red. masses --     1.0858                 1.0888                 1.0919
 Frc consts  --     6.4676                 6.5318                 6.5531
 IR Inten    --     1.7013                 7.6473                 0.0447

                   142                    143                    144
                     A                      A                      A
 Frequencies --  3193.4073              3202.2571              3202.6172
 Red. masses --     1.0899                 1.0910                 1.0909
 Frc consts  --     6.5485                 6.5916                 6.5926
 IR Inten    --    11.3800                 3.1418                 6.9982

                   145                    146                    147
                     A                      A                      A
 Frequencies --  3207.4270              3209.0189              3212.0626
 Red. masses --     1.0949                 1.0946                 1.0971
 Frc consts  --     6.6368                 6.6414                 6.6690
 IR Inten    --    14.7131                 1.4722                 7.3029

                   148                    149                    150
                     A                      A                      A
 Frequencies --  3230.5733              3242.0927              3246.9902
 Red. masses --     1.1202                 1.1170                 1.0945
 Frc consts  --     6.8885                 6.9179                 6.7986
 IR Inten    --     0.7421                 0.5805                 1.5265

                   151                    152                    153
                     A                      A                      A
 Frequencies --  3252.2726              3253.5311              3487.5763
 Red. masses --     1.0989                 1.0932                 1.0748
 Frc consts  --     6.8481                 6.8183                 7.7021
 IR Inten    --     0.8833                 0.2254                33.0137

 - Thermochemistry -
 -------------------
 Temperature   298.150 Kelvin.  Pressure   1.00000 Atm.
 Atom     1 has atomic number  8 and mass  15.99491

 Molecular mass:   467.10858 amu.
 Principal axes and moments of inertia in atomic units:
                           1         2         3
     Eigenvalues --  ******************************
           X            0.99995   0.00957   0.00243
           Y           -0.00951   0.99967  -0.02372
           Z           -0.00266   0.02370   0.99972
 This molecule is an asymmetric top.
 Rotational symmetry number  1.
 Warning -- assumption of classical behavior for rotation
           may cause significant error
 Rotational temperatures (Kelvin)      0.00746     0.00298     0.00246
 Rotational constants (GHZ):           0.15535     0.06203     0.05122
 Zero-point vibrational energy    1062825.9 (Joules/Mol)
                                  254.02150 (Kcal/Mol)
 Warning -- explicit consideration of  45 degrees of freedom as
           vibrations may cause significant error
 Vibrational temperatures:     10.55    15.70    22.79    31.60    34.58
          (Kelvin)             50.32    58.93    72.86    78.83    97.97
                              109.11   121.87   153.83   222.58   226.51
                              262.54   285.28   308.98   322.07   329.15
                              336.12   366.37   395.21   416.14   449.87
                              497.08   517.16   537.98   555.14   594.51
                              612.74   631.62   645.46   659.41   684.61
                              685.06   720.02   762.55   787.57   815.14
                              827.08   841.68   848.72   861.42   871.52
                              910.70   930.61   949.70   964.75   979.01
                              997.63  1003.71  1054.49  1090.84  1093.74
                             1118.85  1126.69  1131.66  1140.91  1177.60
                             1190.07  1195.79  1198.96  1199.92  1240.22
                             1244.69  1248.17  1263.65  1283.89  1287.67
                             1309.13  1325.81  1344.03  1369.26  1379.48
                             1383.62  1387.85  1413.01  1435.49  1442.07
                             1473.79  1481.50  1513.40  1529.24  1561.19
                             1562.11  1566.70  1576.36  1577.02  1615.92
                             1622.71  1638.73  1649.65  1673.15  1694.39
                             1704.02  1718.71  1737.44  1748.16  1753.99
                             1798.16  1810.51  1817.81  1826.95  1864.27
                             1866.02  1889.14  1897.75  1918.37  1933.61
                             1943.94  1979.88  1985.20  2021.38  2044.32
                             2050.51  2056.35  2066.94  2073.81  2099.84
                             2113.18  2116.64  2119.08  2143.51  2201.63
                             2214.58  2291.36  2339.24  2353.82  2386.78
                             2401.45  2552.74  4389.23  4398.88  4440.59
                             4489.25  4512.92  4515.93  4574.72  4590.92
                             4591.93  4594.60  4607.33  4607.85  4614.77
                             4617.06  4621.44  4648.07  4664.64  4671.69
                             4679.29  4681.10  5017.84

 Zero-point correction=                           0.404809 (Hartree/Particle)
 Thermal correction to Energy=                    0.433100
 Thermal correction to Enthalpy=                  0.434044
 Thermal correction to Gibbs Free Energy=         0.338739
 Sum of electronic and zero-point Energies=          -2146.350542
 Sum of electronic and thermal Energies=             -2146.322251
 Sum of electronic and thermal Enthalpies=           -2146.321307
 Sum of electronic and thermal Free Energies=        -2146.416612

                     E (Thermal)             CV                S
                      KCal/Mol        Cal/Mol-Kelvin    Cal/Mol-Kelvin
 Total                  271.774            108.960            200.586
 Electronic               0.000              0.000              0.000
 Translational            0.889              2.981             44.313
 Rotational               0.889              2.981             37.718
 Vibrational            269.997            102.998            118.554
 Vibration     1          0.593              1.987              8.627
 Vibration     2          0.593              1.987              7.838
 Vibration     3          0.593              1.986              7.098
 Vibration     4          0.593              1.985              6.449
 Vibration     5          0.593              1.985              6.270
 Vibration     6          0.594              1.982              5.525
 Vibration     7          0.594              1.981              5.212
 Vibration     8          0.595              1.977              4.792
 Vibration     9          0.596              1.976              4.637
 Vibration    10          0.598              1.969              4.208
 Vibration    11          0.599              1.965              3.996
 Vibration    12          0.601              1.960              3.779
 Vibration    13          0.606              1.944              3.324
 Vibration    14          0.620              1.897              2.614
 Vibration    15          0.621              1.894              2.580
 Vibration    16          0.630              1.864              2.303
 Vibration    17          0.637              1.842              2.149
 Vibration    18          0.645              1.819              2.003
 Vibration    19          0.649              1.805              1.928
 Vibration    20          0.651              1.797              1.889
 Vibration    21          0.654              1.789              1.851
 Vibration    22          0.665              1.755              1.698
 Vibration    23          0.677              1.720              1.567
 Vibration    24          0.686              1.694              1.478
 Vibration    25          0.701              1.650              1.348
 Vibration    26          0.724              1.584              1.187
 Vibration    27          0.734              1.556              1.124
 Vibration    28          0.745              1.526              1.064
 Vibration    29          0.755              1.500              1.016
 Vibration    30          0.777              1.442              0.915
 Vibration    31          0.788              1.414              0.872
 Vibration    32          0.799              1.385              0.830
 Vibration    33          0.808              1.364              0.800
 Vibration    34          0.816              1.343              0.771
 Vibration    35          0.832              1.304              0.721
 Vibration    36          0.833              1.303              0.721
 Vibration    37          0.856              1.249              0.657
 Vibration    38          0.885              1.184              0.587
 Vibration    39          0.903              1.145              0.550
 Vibration    40          0.922              1.104              0.511
 Vibration    41          0.931              1.086              0.495
 Vibration    42          0.942              1.064              0.476
 Vibration    43          0.947              1.053              0.467
 Vibration    44          0.957              1.035              0.452
 Vibration    45          0.964              1.020              0.440

 Optimization completed.
    -- Stationary point found.
 Normal termination of Gaussian 09 at Fri Sep  2 04:33:35 2022.
