 Gaussian 09, Revision C.01,
 Gaussian 09:  EM64L-G09RevC.01 23-Sep-2011

 -------------------------
 #p opt freq b3lyp/cc-pvdz
 -------------------------

 (Enter /opt/gaussian/l101.exe)
 ---------
 Mol17.log
 ---------
 Charge =  0 Multiplicity = 1

 SCF Done:  E(RB3LYP) =  -1709.14521198     A.U. after   16 cycles
 SCF Done:  E(RB3LYP) =  -1709.15663971     A.U. after   13 cycles
 SCF Done:  E(RB3LYP) =  -1709.15751349     A.U. after   13 cycles
 SCF Done:  E(RB3LYP) =  -1709.15760822     A.U. after   13 cycles
 SCF Done:  E(RB3LYP) =  -1709.15772984     A.U. after   13 cycles
 SCF Done:  E(RB3LYP) =  -1709.15776206     A.U. after   12 cycles
 SCF Done:  E(RB3LYP) =  -1709.15778981     A.U. after   10 cycles
 SCF Done:  E(RB3LYP) =  -1709.15780000     A.U. after   10 cycles
 SCF Done:  E(RB3LYP) =  -1709.15780444     A.U. after   10 cycles
 SCF Done:  E(RB3LYP) =  -1709.15780545     A.U. after   10 cycles
 SCF Done:  E(RB3LYP) =  -1709.15780698     A.U. after    8 cycles
 SCF Done:  E(RB3LYP) =  -1709.15780721     A.U. after    7 cycles
 SCF Done:  E(RB3LYP) =  -1709.15780731     A.U. after    7 cycles
 Optimization completed.
    -- Stationary point found.
 Normal termination of Gaussian 09 at Sat Sep  3 02:46:49 2022.

 -------------------------------------------------------------------
 #P Geom=AllCheck Guess=TCheck SCRF=Check GenChk RB3LYP/CC-pVDZ Freq
 -------------------------------------------------------------------

 Structure from the checkpoint file:  /home/scr/lqcapf-6/Gau-160910.chk
 ---------
 Mol17.log
 ---------
 Charge =  0 Multiplicity = 1

                         Standard orientation:
 ---------------------------------------------------------------------
 Center     Atomic      Atomic             Coordinates (Angstroms)
 Number     Number       Type             X           Y           Z
 ---------------------------------------------------------------------
      1         16           0       -1.558583    5.322991   -0.210622
      2          6           0        0.145457    5.034333   -0.091634
      3          6           0       -1.902405    3.620460   -0.236743
      4          6           0        0.433166    3.697242   -0.073896
      5          6           0       -0.744852    2.873708   -0.156745
      6          7           0       -0.656580    1.446992   -0.154172
      7          6           0        3.237929   -0.282236    0.163574
      8          6           0        2.659944   -0.021729   -1.096434
      9          6           0        2.479660    0.029164    1.311192
     10          6           0        1.391396    0.550413   -1.197713
     11          6           0        1.210790    0.597316    1.210948
     12          6           0        0.658000    0.858446   -0.047691
     13          6           0       -1.781576    0.640119   -0.237043
     14          6           0       -1.520141   -0.878307   -0.190425
     15          8           0       -2.918102    1.074204   -0.315326
     16          6           0       -3.852354   -1.818432    0.277448
     17          7           0       -2.713853   -1.640732   -0.460477
     18          6           0       -4.611987   -2.717407   -0.501689
     19          7           0       -2.784000   -2.376426   -1.613013
     20          7           0       -3.901869   -3.015544   -1.648882
     21          6           0       -4.310092   -1.330785    1.512810
     22          6           0       -5.551007   -1.789016    1.936600
     23          6           0       -5.869563   -3.165574   -0.060101
     24          6           0       -6.322849   -2.694057    1.163775
     25          6           0        7.167372   -1.978427    0.621026
     26          7           0        6.396574   -2.274201   -0.461001
     27          6           0        6.698578   -1.111615    1.567911
     28          6           0        5.118206   -1.753726   -0.741372
     29          6           0        5.403081   -0.555529    1.384255
     30          6           0        4.601009   -0.851360    0.299127
     31          8           0        4.564467   -2.084886   -1.786178
     32          1           0        0.845959    5.864914   -0.043178
     33          1           0       -2.919518    3.259506   -0.313849
     34          1           0        1.446546    3.307356   -0.006990
     35          1           0        3.209850   -0.281826   -1.997769
     36          1           0        2.875534   -0.198256    2.302588
     37          1           0        0.961231    0.759182   -2.179332
     38          1           0        0.638617    0.834673    2.110105
     39          1           0       -0.783903   -1.182826   -0.944552
     40          1           0       -1.110125   -1.151839    0.795617
     41          1           0       -3.736680   -0.612608    2.098999
     42          1           0       -5.950535   -1.435048    2.889697
     43          1           0       -6.453638   -3.858394   -0.667727
     44          1           0       -7.294453   -3.017412    1.542988
     45          1           0        8.145226   -2.459357    0.668494
     46          1           0        6.739517   -2.907006   -1.178954
     47          1           0        7.306735   -0.853552    2.433057
     48          1           0        5.037571    0.151462    2.132524
 ---------------------------------------------------------------------

 SCF Done:  E(RB3LYP) =  -1709.15780731     A.U. after    1 cycles

 The electronic state is 1-A.
 Alpha  occ. eigenvalues --  -88.90491 -19.12653 -19.11615 -14.40744 -14.40540
 Alpha  occ. eigenvalues --  -14.38982 -14.38365 -14.34169 -10.30537 -10.30528
 Alpha  occ. eigenvalues --  -10.26929 -10.25075 -10.24729 -10.23778 -10.23049
 Alpha  occ. eigenvalues --  -10.22588 -10.22428 -10.22368 -10.21583 -10.21492
 Alpha  occ. eigenvalues --  -10.21483 -10.21406 -10.21077 -10.20576 -10.20532
 Alpha  occ. eigenvalues --  -10.20402 -10.19855 -10.19620 -10.19529 -10.19366
 Alpha  occ. eigenvalues --  -10.18974  -7.96701  -5.93026  -5.92647  -5.92334
 Alpha  occ. eigenvalues --   -1.08805  -1.05760  -1.05319  -0.97473  -0.96945
 Alpha  occ. eigenvalues --   -0.91833  -0.88326  -0.87198  -0.85876  -0.83933
 Alpha  occ. eigenvalues --   -0.79321  -0.77541  -0.76943  -0.76552  -0.75452
 Alpha  occ. eigenvalues --   -0.74574  -0.73139  -0.71695  -0.67750  -0.66182
 Alpha  occ. eigenvalues --   -0.64351  -0.63657  -0.62947  -0.61931  -0.61412
 Alpha  occ. eigenvalues --   -0.58271  -0.57287  -0.56875  -0.55245  -0.53338
 Alpha  occ. eigenvalues --   -0.52933  -0.52116  -0.51867  -0.51281  -0.50863
 Alpha  occ. eigenvalues --   -0.49967  -0.48535  -0.46580  -0.46202  -0.46116
 Alpha  occ. eigenvalues --   -0.45684  -0.45009  -0.44650  -0.44478  -0.43926
 Alpha  occ. eigenvalues --   -0.43661  -0.43137  -0.42761  -0.41426  -0.40750
 Alpha  occ. eigenvalues --   -0.40135  -0.40049  -0.39436  -0.38890  -0.37890
 Alpha  occ. eigenvalues --   -0.37493  -0.37083  -0.36580  -0.36169  -0.36033
 Alpha  occ. eigenvalues --   -0.35063  -0.34772  -0.33120  -0.32432  -0.30848
 Alpha  occ. eigenvalues --   -0.30587  -0.28200  -0.27738  -0.26797  -0.26708
 Alpha  occ. eigenvalues --   -0.25988  -0.24505  -0.24403  -0.23052  -0.22719
 Alpha  occ. eigenvalues --   -0.21924
 Alpha virt. eigenvalues --   -0.07574  -0.03681  -0.03329  -0.02340  -0.01555
 Alpha virt. eigenvalues --   -0.00339   0.00689   0.01297   0.02769   0.03976
 Alpha virt. eigenvalues --    0.04143   0.04774   0.06281   0.07013   0.07544

 Mulliken atomic charges:
              1
     1  S    0.151229
     2  C   -0.104312
     3  C   -0.124239
     4  C    0.041737
     5  C    0.155062
     6  N   -0.242407
     7  C    0.047575
     8  C    0.054686
     9  C    0.017563
    10  C    0.095362
    11  C    0.092639
    12  C   -0.065310
    13  C    0.134727
    14  C    0.146711
    15  O   -0.246731
    16  C    0.212319
    17  N   -0.229834
    18  C    0.010269
    19  N   -0.058676
    20  N   -0.183131
    21  C    0.032789
    22  C    0.038312
    23  C    0.043891
    24  C    0.036965
    25  C    0.140835
    26  N   -0.056648
    27  C   -0.041291
    28  C    0.137163
    29  C    0.091304
    30  C   -0.087375
    31  O   -0.262179
    32  H    0.009718
    33  H    0.034316
    34  H   -0.010057
    35  H   -0.011635
    36  H   -0.030110
    37  H   -0.026649
    38  H   -0.036104
    39  H    0.063753
    40  H    0.051040
    41  H   -0.032269
    42  H   -0.026847
    43  H   -0.023665
    44  H   -0.028753
    45  H    0.022444
    46  H    0.099739
    47  H   -0.016976
    48  H   -0.016951
 Sum of Mulliken atomic charges =   0.00000

 Dipole moment (field-independent basis, Debye):
    X=              8.7705    Y=              0.6530    Z=              5.4640  Tot=             10.3539
 Quadrupole moment (field-independent basis, Debye-Ang):
   XX=           -138.1719   YY=           -188.5765   ZZ=           -185.5421
   XY=            -11.8868   XZ=             -2.2257   YZ=             -8.9776

  Exact polarizability: 427.463 -27.654 280.751   4.291  26.250 232.194
 Approx polarizability: 623.074 -37.693 415.742   9.306  69.611 456.811

                     1                      2                      3
                     A                      A                      A
 Frequencies --    17.0355                18.2165                21.1116
 Red. masses --     6.2801                 5.7979                 6.9698
 Frc consts  --     0.0011                 0.0011                 0.0018
 IR Inten    --     0.4988                 1.1991                 0.5426

                     4                      5                      6
                     A                      A                      A
 Frequencies --    25.2960                33.9449                42.1493
 Red. masses --     7.0359                 5.0122                 6.7599
 Frc consts  --     0.0027                 0.0034                 0.0071
 IR Inten    --     0.8751                 0.3414                 0.1217

                     7                      8                      9
                     A                      A                      A
 Frequencies --    65.2420                72.1935                81.6012
 Red. masses --     5.5851                 5.0744                 5.7245
 Frc consts  --     0.0140                 0.0156                 0.0225
 IR Inten    --     2.0716                 1.7230                 1.6000

                    10                     11                     12
                     A                      A                      A
 Frequencies --    85.2857               107.5303               119.0879
 Red. masses --     5.8839                 6.9557                 6.2652
 Frc consts  --     0.0252                 0.0474                 0.0524
 IR Inten    --     1.8852                 0.4765                 3.3692

                    13                     14                     15
                     A                      A                      A
 Frequencies --   168.1942               179.3470               225.8642
 Red. masses --     6.3340                 5.2821                 4.8815
 Frc consts  --     0.1056                 0.1001                 0.1467
 IR Inten    --     2.2941                 1.2502                 0.9814

                    16                     17                     18
                     A                      A                      A
 Frequencies --   230.3870               235.7527               250.1355
 Red. masses --     6.0947                 5.7292                 6.6013
 Frc consts  --     0.1906                 0.1876                 0.2433
 IR Inten    --     1.5992                 1.6146                 2.5767

                    19                     20                     21
                     A                      A                      A
 Frequencies --   258.5833               270.6223               329.0902
 Red. masses --     3.5527                 7.0982                 5.1595
 Frc consts  --     0.1400                 0.3063                 0.3292
 IR Inten    --     1.4700                 0.7674                 2.2227

                    22                     23                     24
                     A                      A                      A
 Frequencies --   340.7124               359.7894               385.1772
 Red. masses --     6.6257                 7.5933                 6.4377
 Frc consts  --     0.4532                 0.5791                 0.5627
 IR Inten    --     3.0713                11.0263                 1.8243

                    25                     26                     27
                     A                      A                      A
 Frequencies --   421.9947               428.1426               439.2645
 Red. masses --     4.4419                 3.8405                 4.4346
 Frc consts  --     0.4660                 0.4148                 0.5041
 IR Inten    --     5.7740                 4.1144                 1.1402

                    28                     29                     30
                     A                      A                      A
 Frequencies --   439.9254               466.3713               469.2203
 Red. masses --     3.1856                 4.4076                 3.8451
 Frc consts  --     0.3632                 0.5648                 0.4988
 IR Inten    --     2.5580                 1.2605                 3.4445

                    31                     32                     33
                     A                      A                      A
 Frequencies --   480.3739               522.5983               538.8177
 Red. masses --     4.9680                 3.3714                 5.5055
 Frc consts  --     0.6754                 0.5425                 0.9417
 IR Inten    --     1.3016                 8.2834                 1.9638

                    34                     35                     36
                     A                      A                      A
 Frequencies --   548.7589               568.0304               572.0016
 Red. masses --     4.9436                 5.8543                 4.2718
 Frc consts  --     0.8771                 1.1129                 0.8235
 IR Inten    --     6.8176                 7.4542                 2.8842

                    37                     38                     39
                     A                      A                      A
 Frequencies --   579.0642               585.0615               612.0406
 Red. masses --     5.2500                 4.0016                 4.0927
 Frc consts  --     1.0372                 0.8070                 0.9033
 IR Inten    --     2.2067                 1.0319                44.9873

                    40                     41                     42
                     A                      A                      A
 Frequencies --   629.0087               638.1978               643.3496
 Red. masses --     5.8606                 3.8605                 4.6860
 Frc consts  --     1.3662                 0.9264                 1.1427
 IR Inten    --     3.0497                 6.9484                 5.3095

                    43                     44                     45
                     A                      A                      A
 Frequencies --   657.8943               669.7135               677.8502
 Red. masses --     5.4089                 7.5469                 1.2500
 Frc consts  --     1.3793                 1.9943                 0.3384
 IR Inten    --     1.1633                 3.0179                 3.9748

                    46                     47                     48
                     A                      A                      A
 Frequencies --   697.5624               720.9192               729.5427
 Red. masses --     5.9802                 1.3115                 5.7147
 Frc consts  --     1.7145                 0.4016                 1.7920
 IR Inten    --    15.1617                46.3755                 2.6875

                    49                     50                     51
                     A                      A                      A
 Frequencies --   759.5072               763.6774               769.5199
 Red. masses --     1.3894                 1.5814                 2.5921
 Frc consts  --     0.4722                 0.5434                 0.9044
 IR Inten    --    44.2363                53.2101                12.9244

                    52                     53                     54
                     A                      A                      A
 Frequencies --   786.0175               790.7305               798.6817
 Red. masses --     3.4428                 4.7671                 1.4401
 Frc consts  --     1.2532                 1.7562                 0.5412
 IR Inten    --     1.8121                 2.4659                52.2824

                    55                     56                     57
                     A                      A                      A
 Frequencies --   799.6744               807.6585               826.0937
 Red. masses --     5.1961                 5.4322                 6.1197
 Frc consts  --     1.9578                 2.0878                 2.4606
 IR Inten    --     2.1318                17.3531                25.0276

                    58                     59                     60
                     A                      A                      A
 Frequencies --   849.5835               853.0202               863.5961
 Red. masses --     3.1211                 1.4160                 1.5786
 Frc consts  --     1.3273                 0.6071                 0.6937
 IR Inten    --    30.6467                12.0845                 0.5671

                    61                     62                     63
                     A                      A                      A
 Frequencies --   871.2630               876.8541               882.1931
 Red. masses --     3.3835                 4.5468                 1.9091
 Frc consts  --     1.5133                 2.0597                 0.8754
 IR Inten    --     0.3437                21.7533                 7.3263

                    64                     65                     66
                     A                      A                      A
 Frequencies --   883.3713               919.3822               939.3694
 Red. masses --     1.5273                 4.5839                 1.3017
 Frc consts  --     0.7022                 2.2828                 0.6768
 IR Inten    --     3.1010                 6.2684                 0.6129

                    67                     68                     69
                     A                      A                      A
 Frequencies --   948.1132               957.4702               964.8330
 Red. masses --     3.5561                 1.3697                 3.0734
 Frc consts  --     1.8834                 0.7398                 1.6857
 IR Inten    --    33.0518                 1.2409                25.6179

                    70                     71                     72
                     A                      A                      A
 Frequencies --   969.2169               981.5407               995.9771
 Red. masses --     1.4966                 1.4038                 1.3742
 Frc consts  --     0.8283                 0.7969                 0.8032
 IR Inten    --     1.2507                 0.3619                 2.0197

                    73                     74                     75
                     A                      A                      A
 Frequencies --   996.1618              1003.9608              1013.4132
 Red. masses --     1.2922                 4.3981                 7.2575
 Frc consts  --     0.7555                 2.6119                 4.3915
 IR Inten    --     0.0283                16.4095                24.7673

                    76                     77                     78
                     A                      A                      A
 Frequencies --  1025.3510              1039.9072              1078.3673
 Red. masses --     1.9878                 2.1980                 2.2496
 Frc consts  --     1.2313                 1.4005                 1.5413
 IR Inten    --    13.0775                 5.0132                15.6043

                    79                     80                     81
                     A                      A                      A
 Frequencies --  1093.2524              1095.1279              1117.8817
 Red. masses --     2.1852                 1.3214                 1.8947
 Frc consts  --     1.5388                 0.9337                 1.3950
 IR Inten    --    50.4001                31.1470                 8.0237

                    82                     83                     84
                     A                      A                      A
 Frequencies --  1126.9171              1130.1199              1137.4897
 Red. masses --     2.2225                 1.3252                 1.6235
 Frc consts  --     1.6629                 0.9972                 1.2377
 IR Inten    --     3.7976                 5.5315                 1.6152

                    85                     86                     87
                     A                      A                      A
 Frequencies --  1145.3972              1170.1353              1177.2135
 Red. masses --     1.4314                 1.4798                 1.5253
 Frc consts  --     1.1064                 1.1938                 1.2454
 IR Inten    --     2.3214                 6.2882                 7.7557

                    88                     89                     90
                     A                      A                      A
 Frequencies --  1196.9103              1220.1226              1237.3865
 Red. masses --     1.1367                 1.8998                 1.4873
 Frc consts  --     0.9595                 1.6664                 1.3417
 IR Inten    --     1.0962               154.6496                42.7679

                    91                     92                     93
                     A                      A                      A
 Frequencies --  1269.3952              1291.9495              1294.1890
 Red. masses --     2.4085                 1.7785                 2.9881
 Frc consts  --     2.2866                 1.7491                 2.9488
 IR Inten    --    13.9660                 1.0525                63.6768

                    94                     95                     96
                     A                      A                      A
 Frequencies --  1300.2028              1308.7376              1310.1203
 Red. masses --     2.4107                 2.5840                 1.9638
 Frc consts  --     2.4011                 2.6077                 1.9859
 IR Inten    --   120.5092                17.4578                45.3294

                    97                     98                     99
                     A                      A                      A
 Frequencies --  1316.7006              1324.9031              1354.3473
 Red. masses --     1.8092                 2.6844                 2.6884
 Frc consts  --     1.8481                 2.7763                 2.9054
 IR Inten    --    70.7510                 4.4872                29.9512

                   100                    101                    102
                     A                      A                      A
 Frequencies --  1365.8200              1388.4395              1419.1582
 Red. masses --     4.4292                 2.1012                 1.6902
 Frc consts  --     4.8681                 2.3865                 2.0057
 IR Inten    --    22.3036                25.5624                65.6175

                   103                    104                    105
                     A                      A                      A
 Frequencies --  1425.4047              1427.2221              1432.3736
 Red. masses --     2.1562                 3.2148                 3.0434
 Frc consts  --     2.5812                 3.8582                 3.6790
 IR Inten    --    19.8858                79.0142                19.2461

                   106                    107                    108
                     A                      A                      A
 Frequencies --  1439.0422              1448.1516              1465.5649
 Red. masses --     3.3835                 2.6160                 7.9508
 Frc consts  --     4.1282                 3.2323                10.0616
 IR Inten    --    44.7445                 2.1437                21.8490

                   109                    110                    111
                     A                      A                      A
 Frequencies --  1490.2337              1495.1142              1529.2530
 Red. masses --     3.5373                 2.7502                 3.7772
 Frc consts  --     4.6284                 3.6221                 5.2045
 IR Inten    --    27.7220                 7.0438                22.6163

                   112                    113                    114
                     A                      A                      A
 Frequencies --  1540.3056              1584.0458              1593.7928
 Red. masses --     2.8101                 6.5718                 5.7087
 Frc consts  --     3.9282                 9.7157                 8.5438
 IR Inten    --    71.0784                61.9024                67.1093

                   115                    116                    117
                     A                      A                      A
 Frequencies --  1608.1492              1635.7660              1653.8421
 Red. masses --     6.9558                 7.3694                 6.1745
 Frc consts  --    10.5986                11.6177                 9.9503
 IR Inten    --    10.2170                 3.0262                 9.6235

                   118                    119                    120
                     A                      A                      A
 Frequencies --  1661.8748              1669.4035              1752.2590
 Red. masses --     4.8530                 7.4842                 8.6606
 Frc consts  --     7.8968                12.2890                15.6673
 IR Inten    --    59.5172                17.5811               323.6504

                   121                    122                    123
                     A                      A                      A
 Frequencies --  1761.6050              3051.8377              3139.3228
 Red. masses --    11.8818                 1.0685                 1.0952
 Frc consts  --    21.7245                 5.8633                 6.3593
 IR Inten    --   330.4531                32.0447                 2.5424

                   124                    125                    126
                     A                      A                      A
 Frequencies --  3178.2871              3181.6874              3186.8800
 Red. masses --     1.0859                 1.0885                 1.0885
 Frc consts  --     6.4630                 6.4925                 6.5132
 IR Inten    --     2.5662                16.2696                 1.7681

                   127                    128                    129
                     A                      A                      A
 Frequencies --  3192.7564              3193.4291              3200.9443
 Red. masses --     1.0903                 1.0916                 1.0949
 Frc consts  --     6.5483                 6.5587                 6.6098
 IR Inten    --    14.3443                 4.3990                 5.1991

                   130                    131                    132
                     A                      A                      A
 Frequencies --  3209.3049              3210.4216              3213.3976
 Red. masses --     1.0951                 1.0905                 1.0963
 Frc consts  --     6.6452                 6.6220                 6.6698
 IR Inten    --    17.8686                 0.0592                 5.0728

                   133                    134                    135
                     A                      A                      A
 Frequencies --  3235.1236              3235.6827              3247.3319
 Red. masses --     1.0985                 1.0881                 1.0928
 Frc consts  --     6.7736                 6.7122                 6.7896
 IR Inten    --     5.2826                 0.8210                 3.1532

                   136                    137                    138
                     A                      A                      A
 Frequencies --  3257.5532              3318.6509              3577.6770
 Red. masses --     1.1009                 1.0948                 1.0784
 Frc consts  --     6.8834                 7.1041                 8.1327
 IR Inten    --     0.4410                17.5003                85.4566

 - Thermochemistry -
 -------------------
 Temperature   298.150 Kelvin.  Pressure   1.00000 Atm.
 Atom     1 has atomic number 16 and mass  31.97207

 Molecular mass:   427.11030 amu.
 Principal axes and moments of inertia in atomic units:
                           1         2         3
     Eigenvalues --  ******************************
           X            0.99999   0.00392  -0.00095
           Y           -0.00392   0.99999  -0.00368
           Z            0.00093   0.00369   0.99999
 This molecule is an asymmetric top.
 Rotational symmetry number  1.
 Warning -- assumption of classical behavior for rotation
           may cause significant error
 Rotational temperatures (Kelvin)      0.00778     0.00358     0.00267
 Rotational constants (GHZ):           0.16208     0.07458     0.05573
 Zero-point vibrational energy     950481.9 (Joules/Mol)
                                  227.17063 (Kcal/Mol)
 Warning -- explicit consideration of  39 degrees of freedom as
           vibrations may cause significant error
 Vibrational temperatures:     24.51    26.21    30.37    36.40    48.84
          (Kelvin)             60.64    93.87   103.87   117.41   122.71
                              154.71   171.34   241.99   258.04   324.97
                              331.48   339.20   359.89   372.04   389.36
                              473.49   490.21   517.66   554.18   607.16
                              616.00   632.00   632.95   671.00   675.10
                              691.15   751.90   775.24   789.54   817.27
                              822.98   833.14   841.77   880.59   905.00
                              918.22   925.64   946.56   963.57   975.27
                             1003.64  1037.24  1049.65  1092.76  1098.76
                             1107.17  1130.90  1137.68  1149.12  1150.55
                             1162.04  1188.56  1222.36  1227.30  1242.52
                             1253.55  1261.60  1269.28  1270.97  1322.78
                             1351.54  1364.12  1377.58  1388.18  1394.49
                             1412.22  1432.99  1433.25  1444.47  1458.07
                             1475.25  1496.19  1551.53  1572.94  1575.64
                             1608.38  1621.38  1625.99  1636.59  1647.97
                             1683.56  1693.75  1722.08  1755.48  1780.32
                             1826.37  1858.82  1862.05  1870.70  1882.98
                             1884.97  1894.44  1906.24  1948.60  1965.11
                             1997.65  2041.85  2050.84  2053.45  2060.86
                             2070.46  2083.56  2108.62  2144.11  2151.13
                             2200.25  2216.15  2279.09  2293.11  2313.77
                             2353.50  2379.51  2391.06  2401.90  2521.11
                             2534.55  4390.91  4516.78  4572.84  4577.73
                             4585.20  4593.66  4594.63  4605.44  4617.47
                             4619.07  4623.36  4654.62  4655.42  4672.18
                             4686.89  4774.79  5147.47

 Zero-point correction=                           0.362019 (Hartree/Particle)
 Thermal correction to Energy=                    0.386884
 Thermal correction to Enthalpy=                  0.387828
 Thermal correction to Gibbs Free Energy=         0.302561
 Sum of electronic and zero-point Energies=          -1708.795788
 Sum of electronic and thermal Energies=             -1708.770924
 Sum of electronic and thermal Enthalpies=           -1708.769979
 Sum of electronic and thermal Free Energies=        -1708.855247

                     E (Thermal)             CV                S
                      KCal/Mol        Cal/Mol-Kelvin    Cal/Mol-Kelvin
 Total                  242.773             97.623            179.460
 Electronic               0.000              0.000              0.000
 Translational            0.889              2.981             44.046
 Rotational               0.889              2.981             37.410
 Vibrational            240.996             91.661             98.005
 Vibration     1          0.593              1.986              6.953
 Vibration     2          0.593              1.986              6.820
 Vibration     3          0.593              1.985              6.527
 Vibration     4          0.593              1.985              6.168
 Vibration     5          0.594              1.983              5.584
 Vibration     6          0.595              1.980              5.155
 Vibration     7          0.597              1.971              4.292
 Vibration     8          0.598              1.967              4.093
 Vibration     9          0.600              1.962              3.852
 Vibration    10          0.601              1.959              3.765
 Vibration    11          0.606              1.943              3.313
 Vibration    12          0.609              1.933              3.115
 Vibration    13          0.625              1.882              2.456
 Vibration    14          0.629              1.868              2.335
 Vibration    15          0.650              1.802              1.912
 Vibration    16          0.652              1.795              1.876
 Vibration    17          0.655              1.786              1.835
 Vibration    18          0.663              1.763              1.730
 Vibration    19          0.667              1.748              1.671
 Vibration    20          0.674              1.727              1.592
 Vibration    21          0.712              1.617              1.265
 Vibration    22          0.720              1.594              1.209
 Vibration    23          0.734              1.555              1.123
 Vibration    24          0.754              1.502              1.019
 Vibration    25          0.784              1.422              0.885
 Vibration    26          0.790              1.409              0.865
 Vibration    27          0.799              1.385              0.829
 Vibration    28          0.800              1.383              0.827
 Vibration    29          0.824              1.325              0.748
 Vibration    30          0.826              1.318              0.740
 Vibration    31          0.837              1.294              0.709
 Vibration    32          0.878              1.200              0.604
 Vibration    33          0.894              1.164              0.568
 Vibration    34          0.904              1.142              0.547
 Vibration    35          0.924              1.100              0.508
 Vibration    36          0.928              1.092              0.500
 Vibration    37          0.936              1.077              0.487
 Vibration    38          0.942              1.064              0.476
 Vibration    39          0.971              1.006              0.429

 Normal termination of Gaussian 09 at Sat Sep  3 05:07:30 2022.
