 Gaussian 09, Revision C.01,
 Gaussian 09:  EM64L-G09RevC.01 23-Sep-2011

 -------------------------
 #p opt freq b3lyp/cc-pvdz
 -------------------------

 (Enter /opt/gaussian/l101.exe)
 ---------
 Mol19.log
 ---------
 Charge =  0 Multiplicity = 1

 SCF Done:  E(RB3LYP) =  -1651.13043285     A.U. after   15 cycles
 SCF Done:  E(RB3LYP) =  -1651.14183375     A.U. after   13 cycles
 SCF Done:  E(RB3LYP) =  -1651.14273084     A.U. after   13 cycles
 SCF Done:  E(RB3LYP) =  -1651.14297619     A.U. after   12 cycles
 SCF Done:  E(RB3LYP) =  -1651.14296160     A.U. after   13 cycles
 SCF Done:  E(RB3LYP) =  -1651.14314410     A.U. after   12 cycles
 SCF Done:  E(RB3LYP) =  -1651.14317866     A.U. after   11 cycles
 SCF Done:  E(RB3LYP) =  -1651.14319571     A.U. after   11 cycles
 SCF Done:  E(RB3LYP) =  -1651.14320199     A.U. after   10 cycles
 SCF Done:  E(RB3LYP) =  -1651.14320588     A.U. after   10 cycles
 SCF Done:  E(RB3LYP) =  -1651.14320792     A.U. after   10 cycles
 SCF Done:  E(RB3LYP) =  -1651.14320977     A.U. after   10 cycles
 SCF Done:  E(RB3LYP) =  -1651.14321083     A.U. after   11 cycles
 SCF Done:  E(RB3LYP) =  -1651.14321109     A.U. after   10 cycles
 SCF Done:  E(RB3LYP) =  -1651.14321146     A.U. after    8 cycles
 SCF Done:  E(RB3LYP) =  -1651.14321161     A.U. after    8 cycles
 SCF Done:  E(RB3LYP) =  -1651.14321168     A.U. after    8 cycles
 SCF Done:  E(RB3LYP) =  -1651.14321173     A.U. after    8 cycles
 SCF Done:  E(RB3LYP) =  -1651.14321175     A.U. after    7 cycles
 Optimization completed.
    -- Stationary point found.
 Normal termination of Gaussian 09 at Sat Sep  3 16:14:13 2022.

 -------------------------------------------------------------------
 #P Geom=AllCheck Guess=TCheck SCRF=Check GenChk RB3LYP/CC-pVDZ Freq
 -------------------------------------------------------------------

 Structure from the checkpoint file:  /home/scr/lqcapf-6/Gau-178705.chk
 ---------
 Mol19.log
 ---------
 Charge =  0 Multiplicity = 1

                         Standard orientation:
 ---------------------------------------------------------------------
 Center     Atomic      Atomic             Coordinates (Angstroms)
 Number     Number       Type             X           Y           Z
 ---------------------------------------------------------------------
      1          8           0        0.851209   -1.449466   -0.140986
      2          6           0        0.949439   -0.373189   -0.701331
      3          6           0        2.326652    0.142257   -1.168350
      4          7           0        3.366883   -0.833342   -0.963620
      5          7           0        3.943531   -1.427105   -2.054071
      6          7           0        4.864110   -2.239950   -1.665328
      7          6           0        4.922064   -2.205432   -0.285249
      8          6           0        5.757495   -2.890903    0.614512
      9          6           0        5.585801   -2.635435    1.967589
     10          6           0        4.602073   -1.722355    2.426707
     11          6           0        3.765035   -1.040492    1.552812
     12          6           0        3.947796   -1.298270    0.184154
     13          7           0       -0.130827    0.461144   -0.960565
     14          6           0        0.062134    1.796345   -1.540133
     15          6           0        0.516324    2.872559   -0.574486
     16          6           0        0.952267    4.168472   -1.014138
     17          6           0        1.303293    4.995774    0.018614
     18         16           0        1.114246    4.213156    1.557367
     19          6           0        0.553511    2.755877    0.794002
     20          6           0       -1.469769    0.050955   -0.638832
     21          6           0       -2.397736    0.991540   -0.164301
     22          6           0       -3.713814    0.618670    0.107602
     23          6           0       -4.155587   -0.702036   -0.080509
     24          6           0       -3.212981   -1.633764   -0.554692
     25          6           0       -1.896398   -1.273612   -0.830031
     26          6           0       -5.540123   -1.101635    0.206622
     27          6           0       -6.679070   -0.300907    0.241612
     28          7           0       -7.717690   -1.119593    0.550593
     29          7           0       -7.354643   -2.404336    0.726110
     30          6           0       -6.040060   -2.400411    0.517155
     31          1           0        2.321519    0.344338   -2.248547
     32          1           0        2.577569    1.081131   -0.649439
     33          1           0        6.507433   -3.592863    0.246868
     34          1           0        6.213880   -3.147378    2.699503
     35          1           0        4.495664   -1.557465    3.501246
     36          1           0        2.996728   -0.357287    1.915263
     37          1           0        0.776731    1.734393   -2.375718
     38          1           0       -0.894312    2.088374   -1.998213
     39          1           0        1.002689    4.467049   -2.062593
     40          1           0        1.668412    6.019526   -0.033367
     41          1           0        0.275391    1.895396    1.399018
     42          1           0       -2.092350    2.022465    0.019945
     43          1           0       -4.400909    1.370430    0.502106
     44          1           0       -3.519897   -2.665720   -0.736073
     45          1           0       -1.198274   -2.023922   -1.192955
     46          1           0       -6.824006    0.759025    0.051509
     47          1           0       -5.481425   -3.329065    0.616121
     48          1           0       -8.692062   -0.864984    0.647534
 ---------------------------------------------------------------------

 SCF Done:  E(RB3LYP) =  -1651.14321175     A.U. after    1 cycles

 The electronic state is 1-A.
 Alpha  occ. eigenvalues --  -88.92432 -19.12600 -14.41056 -14.40920 -14.38747
 Alpha  occ. eigenvalues --  -14.38712 -14.34877 -14.34530 -10.30724 -10.25858
 Alpha  occ. eigenvalues --  -10.25569 -10.24004 -10.23288 -10.23012 -10.23005
 Alpha  occ. eigenvalues --  -10.22916 -10.22114 -10.21235 -10.20848 -10.20718
 Alpha  occ. eigenvalues --  -10.20704 -10.20152 -10.20071 -10.19866 -10.19803
 Alpha  occ. eigenvalues --  -10.19641 -10.19539 -10.19488 -10.19479 -10.19235
 Alpha  occ. eigenvalues --   -7.98636  -5.94960  -5.94580  -5.94271  -1.09184
 Alpha  occ. eigenvalues --   -1.05809  -1.05163  -0.96569  -0.92242  -0.89844
 Alpha  occ. eigenvalues --   -0.86521  -0.86174  -0.82350  -0.80616  -0.78485
 Alpha  occ. eigenvalues --   -0.77723  -0.76790  -0.75596  -0.74983  -0.74557
 Alpha  occ. eigenvalues --   -0.73325  -0.70276  -0.65770  -0.64644  -0.62599
 Alpha  occ. eigenvalues --   -0.62030  -0.60986  -0.60039  -0.58750  -0.58209
 Alpha  occ. eigenvalues --   -0.56817  -0.56021  -0.54997  -0.53771  -0.52605
 Alpha  occ. eigenvalues --   -0.52239  -0.51676  -0.50761  -0.47901  -0.47688
 Alpha  occ. eigenvalues --   -0.46507  -0.46393  -0.45862  -0.45241  -0.44757
 Alpha  occ. eigenvalues --   -0.44448  -0.44251  -0.43907  -0.43143  -0.42892
 Alpha  occ. eigenvalues --   -0.42440  -0.42205  -0.41067  -0.40528  -0.40257
 Alpha  occ. eigenvalues --   -0.39337  -0.38794  -0.37657  -0.37595  -0.37315
 Alpha  occ. eigenvalues --   -0.36453  -0.36176  -0.35381  -0.35195  -0.32819
 Alpha  occ. eigenvalues --   -0.31242  -0.30896  -0.29371  -0.27567  -0.27034
 Alpha  occ. eigenvalues --   -0.26677  -0.26390  -0.26145  -0.25901  -0.25516
 Alpha  occ. eigenvalues --   -0.24699  -0.23231  -0.21530
 Alpha virt. eigenvalues --   -0.03966  -0.03465  -0.03373  -0.01652   0.00621
 Alpha virt. eigenvalues --    0.01050   0.01655   0.01780   0.02388   0.03794
 Alpha virt. eigenvalues --    0.04835   0.04933   0.06186   0.06598   0.06868

 Mulliken atomic charges:
              1
     1  O   -0.239753
     2  C    0.130588
     3  C    0.122517
     4  N   -0.227630
     5  N   -0.061792
     6  N   -0.182641
     7  C    0.010729
     8  C    0.044245
     9  C    0.037722
    10  C    0.039096
    11  C    0.033126
    12  C    0.212866
    13  N   -0.279090
    14  C    0.141920
    15  C   -0.025477
    16  C    0.047666
    17  C   -0.100227
    18  S    0.161811
    19  C   -0.149993
    20  C    0.092138
    21  C    0.027143
    22  C   -0.002281
    23  C    0.062856
    24  C   -0.002145
    25  C    0.082337
    26  C   -0.060360
    27  C    0.089076
    28  N    0.002871
    29  N   -0.171292
    30  C    0.090946
    31  H    0.060417
    32  H    0.060385
    33  H   -0.022885
    34  H   -0.027644
    35  H   -0.025850
    36  H   -0.031602
    37  H    0.037014
    38  H    0.047886
    39  H   -0.027016
    40  H    0.019436
    41  H    0.024343
    42  H   -0.023928
    43  H   -0.048639
    44  H   -0.037142
    45  H   -0.015105
    46  H   -0.003593
    47  H   -0.013783
    48  H    0.100737
 Sum of Mulliken atomic charges =   0.00000

 Dipole moment (field-independent basis, Debye):
    X=             -3.4513    Y=              6.8335    Z=              0.8192  Tot=              7.6993
 Quadrupole moment (field-independent basis, Debye-Ang):
   XX=           -170.5710   YY=           -175.3447   ZZ=           -179.4212
   XY=             -5.8223   XZ=             14.0834   YZ=             -8.5199

  Exact polarizability: 368.672  -7.523 287.419  -5.264  -3.845 232.079
 Approx polarizability: 494.549 -33.252 476.345 -17.231  -3.832 444.229

                     1                      2                      3
                     A                      A                      A
 Frequencies --    11.7650                20.3872                23.9361
 Red. masses --     6.4212                 6.8703                 5.1286
 Frc consts  --     0.0005                 0.0017                 0.0017
 IR Inten    --     1.3903                 0.7492                 1.2152

                     4                      5                      6
                     A                      A                      A
 Frequencies --    26.5175                30.2785                39.9894
 Red. masses --     6.8275                 4.9977                 4.7359
 Frc consts  --     0.0028                 0.0027                 0.0045
 IR Inten    --     0.4172                 0.6561                 1.4886

                     7                      8                      9
                     A                      A                      A
 Frequencies --    54.3924                60.6142                69.2147
 Red. masses --     6.5678                 5.1018                 5.7902
 Frc consts  --     0.0114                 0.0110                 0.0163
 IR Inten    --     0.2462                 0.1552                 1.6444

                    10                     11                     12
                     A                      A                      A
 Frequencies --    82.1007               103.4094               133.9025
 Red. masses --     6.5786                 7.0597                 5.7646
 Frc consts  --     0.0261                 0.0445                 0.0609
 IR Inten    --     1.7654                 0.2620                 3.6746

                    13                     14                     15
                     A                      A                      A
 Frequencies --   174.8641               182.4758               198.3406
 Red. masses --     6.3100                 6.8041                 6.3456
 Frc consts  --     0.1137                 0.1335                 0.1471
 IR Inten    --     1.1968                 0.6002                 0.5093

                    16                     17                     18
                     A                      A                      A
 Frequencies --   221.6809               232.2935               247.1889
 Red. masses --     5.0356                 5.9797                 3.6186
 Frc consts  --     0.1458                 0.1901                 0.1303
 IR Inten    --     4.4804                 0.6033                 1.1270

                    19                     20                     21
                     A                      A                      A
 Frequencies --   269.0376               297.2347               319.1677
 Red. masses --     4.5495                 5.1026                 3.4740
 Frc consts  --     0.1940                 0.2656                 0.2085
 IR Inten    --     3.1560                 0.2853                 3.4660

                    22                     23                     24
                     A                      A                      A
 Frequencies --   347.1031               397.9769               416.4972
 Red. masses --     7.4824                 7.4130                 3.1457
 Frc consts  --     0.5311                 0.6918                 0.3215
 IR Inten    --     1.3645                15.9494                 0.8434

                    25                     26                     27
                     A                      A                      A
 Frequencies --   419.8016               431.1227               439.6441
 Red. masses --     5.1332                 3.3908                 2.8898
 Frc consts  --     0.5330                 0.3713                 0.3291
 IR Inten    --     1.0449                 2.2408                 2.3076

                    28                     29                     30
                     A                      A                      A
 Frequencies --   458.1402               462.0758               477.1500
 Red. masses --     4.3645                 4.2035                 4.2680
 Frc consts  --     0.5397                 0.5288                 0.5725
 IR Inten    --     0.1505                 1.1087                 1.7131

                    31                     32                     33
                     A                      A                      A
 Frequencies --   529.1422               538.7633               546.3349
 Red. masses --     1.8480                 4.3090                 2.8845
 Frc consts  --     0.3049                 0.7369                 0.5073
 IR Inten    --    53.6843                 0.9086                 1.0800

                    34                     35                     36
                     A                      A                      A
 Frequencies --   571.2619               583.5496               587.6259
 Red. masses --     5.5152                 4.0807                 4.1290
 Frc consts  --     1.0604                 0.8187                 0.8400
 IR Inten    --     0.1804                 1.4966                 1.2845

                    37                     38                     39
                     A                      A                      A
 Frequencies --   602.8286               608.8308               646.1080
 Red. masses --     3.7818                 4.4249                 5.7049
 Frc consts  --     0.8097                 0.9664                 1.4032
 IR Inten    --     2.4983                23.3348                 1.1724

                    40                     41                     42
                     A                      A                      A
 Frequencies --   658.4219               663.1074               670.6372
 Red. masses --     5.9341                 2.3693                 6.3503
 Frc consts  --     1.5157                 0.6138                 1.6827
 IR Inten    --     0.5466                 0.9385                 5.1460

                    43                     44                     45
                     A                      A                      A
 Frequencies --   682.3523               691.4931               697.7324
 Red. masses --     5.8294                 4.3340                 2.9767
 Frc consts  --     1.5992                 1.2210                 0.8538
 IR Inten    --     2.1252                31.6604                23.4658

                    46                     47                     48
                     A                      A                      A
 Frequencies --   698.7985               750.6022               759.7714
 Red. masses --     1.2698                 3.2174                 1.3871
 Frc consts  --     0.3653                 1.0680                 0.4718
 IR Inten    --     1.8173                 8.1224                45.6858

                    49                     50                     51
                     A                      A                      A
 Frequencies --   774.3275               785.0351               786.5940
 Red. masses --     5.6153                 1.2421                 3.4231
 Frc consts  --     1.9837                 0.4510                 1.2479
 IR Inten    --     8.9493                38.7010                 1.6696

                    52                     53                     54
                     A                      A                      A
 Frequencies --   793.9743               796.1709               832.5485
 Red. masses --     3.9434                 1.6214                 5.0886
 Frc consts  --     1.4647                 0.6056                 2.0781
 IR Inten    --     0.7571                15.5038                34.5535

                    55                     56                     57
                     A                      A                      A
 Frequencies --   834.2521               838.1031               856.4498
 Red. masses --     5.1722                 1.2700                 1.7288
 Frc consts  --     2.1209                 0.5256                 0.7471
 IR Inten    --    28.7342                 0.4613                36.1272

                    58                     59                     60
                     A                      A                      A
 Frequencies --   864.4245               867.0436               876.5339
 Red. masses --     1.6230                 3.6619                 2.9032
 Frc consts  --     0.7145                 1.6219                 1.3142
 IR Inten    --     0.5373                 5.0997                20.8782

                    61                     62                     63
                     A                      A                      A
 Frequencies --   883.5342               895.4644               923.2701
 Red. masses --     1.5558                 1.3375                 4.8815
 Frc consts  --     0.7156                 0.6319                 2.4517
 IR Inten    --     5.2955                 0.2420                 3.5666

                    64                     65                     66
                     A                      A                      A
 Frequencies --   946.6374               951.8602               958.2733
 Red. masses --     5.3631                 3.2754                 1.3971
 Frc consts  --     2.8316                 1.7485                 0.7559
 IR Inten    --    25.4631                 5.2818                 5.5135

                    67                     68                     69
                     A                      A                      A
 Frequencies --   959.5692               962.2638               969.5194
 Red. masses --     5.0674                 3.5756                 1.3627
 Frc consts  --     2.7491                 1.9507                 0.7547
 IR Inten    --    52.3584                51.9385                 1.1434

                    70                     71                     72
                     A                      A                      A
 Frequencies --   979.1771               996.9403              1003.8635
 Red. masses --     1.3556                 1.2905                 2.2981
 Frc consts  --     0.7658                 0.7557                 1.3645
 IR Inten    --     0.9822                 0.0746                33.4317

                    73                     74                     75
                     A                      A                      A
 Frequencies --  1024.4264              1030.0820              1047.1407
 Red. masses --     2.0126                 2.7643                 1.6450
 Frc consts  --     1.2444                 1.7282                 1.0627
 IR Inten    --     9.6115                 1.4800                33.0986

                    76                     77                     78
                     A                      A                      A
 Frequencies --  1089.0259              1096.1278              1114.7643
 Red. masses --     1.1080                 3.2269                 3.1888
 Frc consts  --     0.7743                 2.2843                 2.3348
 IR Inten    --     7.2213                66.1744                31.3747

                    79                     80                     81
                     A                      A                      A
 Frequencies --  1127.1565              1128.3143              1145.6903
 Red. masses --     2.3871                 2.3475                 1.4257
 Frc consts  --     1.7869                 1.7608                 1.1026
 IR Inten    --     4.3049                13.6603                 1.9990

                    82                     83                     84
                     A                      A                      A
 Frequencies --  1147.6074              1163.5626              1170.0246
 Red. masses --     1.4795                 1.7210                 2.0935
 Frc consts  --     1.1480                 1.3728                 1.6885
 IR Inten    --     2.4867                11.4492                12.1461

                    85                     86                     87
                     A                      A                      A
 Frequencies --  1177.4318              1209.3626              1215.0883
 Red. masses --     1.5609                 1.1615                 1.4738
 Frc consts  --     1.2749                 1.0009                 1.2820
 IR Inten    --     7.7527                24.3317                 9.6461

                    88                     89                     90
                     A                      A                      A
 Frequencies --  1223.4099              1236.7312              1259.4021
 Red. masses --     1.5960                 1.5755                 3.1326
 Frc consts  --     1.4074                 1.4197                 2.9274
 IR Inten    --   234.8681                 3.4866                54.0138

                    91                     92                     93
                     A                      A                      A
 Frequencies --  1270.4803              1296.3372              1307.8428
 Red. masses --     2.7312                 1.6926                 2.2438
 Frc consts  --     2.5974                 1.6759                 2.2612
 IR Inten    --     7.2554                 2.1444                 3.9308

                    94                     95                     96
                     A                      A                      A
 Frequencies --  1320.4879              1332.2391              1342.4075
 Red. masses --     1.6675                 1.7316                 1.6655
 Frc consts  --     1.7131                 1.8108                 1.7683
 IR Inten    --    61.7644                27.6192                51.0629

                    97                     98                     99
                     A                      A                      A
 Frequencies --  1349.0781              1352.9702              1375.9144
 Red. masses --     2.6661                 2.0210                 3.9909
 Frc consts  --     2.8589                 2.1797                 4.4515
 IR Inten    --    42.7825                16.3212                23.0776

                   100                    101                    102
                     A                      A                      A
 Frequencies --  1388.0632              1406.5782              1419.3046
 Red. masses --     4.7049                 2.1023                 3.6038
 Frc consts  --     5.3410                 2.4506                 4.2773
 IR Inten    --    23.0228               144.1396                93.0401

                   103                    104                    105
                     A                      A                      A
 Frequencies --  1420.6449              1428.9994              1436.3873
 Red. masses --     2.6117                 3.2051                 2.7379
 Frc consts  --     3.1056                 3.8562                 3.3282
 IR Inten    --     8.1474                 3.5152                 3.9261

                   106                    107                    108
                     A                      A                      A
 Frequencies --  1441.9447              1459.5552              1469.6882
 Red. masses --     1.9797                 3.2324                 3.5640
 Frc consts  --     2.4252                 4.0571                 4.5357
 IR Inten    --    56.7921                21.0481                 5.5988

                   109                    110                    111
                     A                      A                      A
 Frequencies --  1474.9711              1489.5415              1495.6285
 Red. masses --     1.2956                 3.5683                 2.4812
 Frc consts  --     1.6606                 4.6646                 3.2701
 IR Inten    --    24.2269                23.6106                 2.2817

                   112                    113                    114
                     A                      A                      A
 Frequencies --  1530.2670              1542.0906              1593.3947
 Red. masses --     3.7875                 2.6659                 5.8256
 Frc consts  --     5.2255                 3.7352                 8.7144
 IR Inten    --    20.0325               107.0104                 0.4994

                   115                    116                    117
                     A                      A                      A
 Frequencies --  1610.1065              1617.9945              1635.4952
 Red. masses --     5.7985                 5.8636                 7.3615
 Frc consts  --     8.8567                 9.0442                11.6015
 IR Inten    --    40.1419                30.0920                 2.6005

                   118                    119                    120
                     A                      A                      A
 Frequencies --  1664.2504              1669.3090              1771.5353
 Red. masses --     6.2178                 7.4706                12.0844
 Frc consts  --    10.1466                12.2653                22.3446
 IR Inten    --     1.3487                14.1736               235.4619

                   121                    122                    123
                     A                      A                      A
 Frequencies --  3048.3669              3055.1259              3086.6397
 Red. masses --     1.0642                 1.0632                 1.1005
 Frc consts  --     5.8263                 5.8467                 6.1778
 IR Inten    --    22.5124                19.9172                10.4404

                   124                    125                    126
                     A                      A                      A
 Frequencies --  3119.9155              3179.2162              3179.9795
 Red. masses --     1.1001                 1.0859                 1.0878
 Frc consts  --     6.3090                 6.4666                 6.4813
 IR Inten    --     4.0403                 2.0158                13.4269

                   127                    128                    129
                     A                      A                      A
 Frequencies --  3189.2549              3193.3982              3201.6658
 Red. masses --     1.0900                 1.0901                 1.0910
 Frc consts  --     6.5319                 6.5498                 6.5892
 IR Inten    --    10.3884                12.3772                 2.8122

                   130                    131                    132
                     A                      A                      A
 Frequencies --  3201.9988              3209.1602              3212.7529
 Red. masses --     1.0939                 1.0948                 1.0969
 Frc consts  --     6.6081                 6.6428                 6.6707
 IR Inten    --     4.2833                17.4506                 5.2483

                   133                    134                    135
                     A                      A                      A
 Frequencies --  3243.6010              3245.8949              3248.1536
 Red. masses --     1.0961                 1.0933                 1.0942
 Frc consts  --     6.7948                 6.7867                 6.8017
 IR Inten    --     1.2940                 0.7442                 1.3303

                   136                    137                    138
                     A                      A                      A
 Frequencies --  3251.8381              3263.1686              3644.3106
 Red. masses --     1.0990                 1.0982                 1.0825
 Frc consts  --     6.8468                 6.8900                 8.4704
 IR Inten    --     0.9543                 0.0729               137.4967

 - Thermochemistry -
 -------------------
 Temperature   298.150 Kelvin.  Pressure   1.00000 Atm.
 Atom     1 has atomic number  8 and mass  15.99491

 Molecular mass:   414.12628 amu.
 Principal axes and moments of inertia in atomic units:
                           1         2         3
     Eigenvalues --  9475.02327********************
           X            0.99999  -0.00238   0.00400
           Y            0.00245   0.99984  -0.01784
           Z           -0.00396   0.01785   0.99983
 This molecule is an asymmetric top.
 Rotational symmetry number  1.
 Warning -- assumption of classical behavior for rotation
           may cause significant error
 Rotational temperatures (Kelvin)      0.00914     0.00349     0.00283
 Rotational constants (GHZ):           0.19047     0.07278     0.05891
 Zero-point vibrational energy     967568.3 (Joules/Mol)
                                  231.25438 (Kcal/Mol)
 Warning -- explicit consideration of  38 degrees of freedom as
           vibrations may cause significant error
 Vibrational temperatures:     16.93    29.33    34.44    38.15    43.56
          (Kelvin)             57.54    78.26    87.21    99.58   118.12
                              148.78   192.66   251.59   262.54   285.37
                              318.95   334.22   355.65   387.08   427.65
                              459.21   499.40   572.60   599.25   604.00
                              620.29   632.55   659.16   664.82   686.51
                              761.32   775.16   786.05   821.92   839.60
                              845.46   867.33   875.97   929.60   947.32
                              954.06   964.90   981.75   994.90  1003.88
                             1005.41  1079.95  1093.14  1114.08  1129.49
                             1131.73  1142.35  1145.51  1197.85  1200.30
                             1205.84  1232.24  1243.71  1247.48  1261.14
                             1271.21  1288.37  1328.38  1362.00  1369.51
                             1378.74  1380.60  1384.48  1394.92  1408.82
                             1434.37  1444.33  1473.92  1482.06  1506.60
                             1566.86  1577.08  1603.90  1621.72  1623.39
                             1648.39  1651.15  1674.11  1683.40  1694.06
                             1740.00  1748.24  1760.21  1779.38  1812.00
                             1827.94  1865.14  1881.69  1899.89  1916.79
                             1931.42  1941.02  1946.62  1979.63  1997.11
                             2023.75  2042.06  2043.99  2056.01  2066.64
                             2074.63  2099.97  2114.55  2122.15  2143.12
                             2151.87  2201.71  2218.72  2292.54  2316.58
                             2327.93  2353.11  2394.48  2401.76  2548.84
                             4385.91  4395.64  4440.98  4488.86  4574.18
                             4575.28  4588.62  4594.58  4606.48  4606.96
                             4617.26  4622.43  4666.81  4670.11  4673.36
                             4678.66  4694.97  5243.34

 Zero-point correction=                           0.368527 (Hartree/Particle)
 Thermal correction to Energy=                    0.392984
 Thermal correction to Enthalpy=                  0.393928
 Thermal correction to Gibbs Free Energy=         0.308791
 Sum of electronic and zero-point Energies=          -1650.774684
 Sum of electronic and thermal Energies=             -1650.750228
 Sum of electronic and thermal Enthalpies=           -1650.749284
 Sum of electronic and thermal Free Energies=        -1650.834421

                     E (Thermal)             CV                S
                      KCal/Mol        Cal/Mol-Kelvin    Cal/Mol-Kelvin
 Total                  246.601             95.287            179.186
 Electronic               0.000              0.000              0.000
 Translational            0.889              2.981             43.954
 Rotational               0.889              2.981             37.218
 Vibrational            244.824             89.325             98.014
 Vibration     1          0.593              1.987              7.688
 Vibration     2          0.593              1.986              6.596
 Vibration     3          0.593              1.985              6.278
 Vibration     4          0.593              1.984              6.074
 Vibration     5          0.594              1.984              5.811
 Vibration     6          0.594              1.981              5.260
 Vibration     7          0.596              1.976              4.651
 Vibration     8          0.597              1.973              4.437
 Vibration     9          0.598              1.969              4.176
 Vibration    10          0.600              1.961              3.840
 Vibration    11          0.605              1.946              3.389
 Vibration    12          0.613              1.919              2.889
 Vibration    13          0.627              1.873              2.383
 Vibration    14          0.630              1.864              2.303
 Vibration    15          0.637              1.842              2.148
 Vibration    16          0.648              1.808              1.945
 Vibration    17          0.653              1.792              1.861
 Vibration    18          0.661              1.767              1.751
 Vibration    19          0.673              1.730              1.602
 Vibration    20          0.691              1.679              1.432
 Vibration    21          0.705              1.637              1.314
 Vibration    22          0.725              1.581              1.179
 Vibration    23          0.764              1.474              0.970
 Vibration    24          0.780              1.434              0.904
 Vibration    25          0.782              1.427              0.893
 Vibration    26          0.792              1.402              0.855
 Vibration    27          0.800              1.384              0.828
 Vibration    28          0.816              1.343              0.772
 Vibration    29          0.820              1.334              0.760
 Vibration    30          0.834              1.301              0.718
 Vibration    31          0.884              1.186              0.589
 Vibration    32          0.894              1.164              0.568
 Vibration    33          0.902              1.148              0.552
 Vibration    34          0.927              1.093              0.502
 Vibration    35          0.940              1.067              0.479
 Vibration    36          0.945              1.058              0.471
 Vibration    37          0.961              1.026              0.445
 Vibration    38          0.968              1.013              0.435

 Optimization completed.
    -- Stationary point found.
 Normal termination of Gaussian 09 at Sat Sep  3 18:26:06 2022.
