 Gaussian 09, Revision C.01,
 Gaussian 09:  EM64L-G09RevC.01 23-Sep-2011

 -------------------------
 #p opt freq b3lyp/cc-pvdz
 -------------------------

 (Enter /opt/gaussian/l101.exe)
 ---------
 Mol10.log
 ---------
 Charge =  0 Multiplicity = 1

 SCF Done:  E(RB3LYP) =  -1594.82241303     A.U. after   16 cycles
 SCF Done:  E(RB3LYP) =  -1594.83291763     A.U. after   13 cycles
 SCF Done:  E(RB3LYP) =  -1594.83375230     A.U. after   13 cycles
 SCF Done:  E(RB3LYP) =  -1594.83394347     A.U. after   12 cycles
 SCF Done:  E(RB3LYP) =  -1594.83409042     A.U. after   12 cycles
 SCF Done:  E(RB3LYP) =  -1594.83425001     A.U. after   12 cycles
 SCF Done:  E(RB3LYP) =  -1594.83434330     A.U. after   12 cycles
 SCF Done:  E(RB3LYP) =  -1594.83444731     A.U. after   11 cycles
 SCF Done:  E(RB3LYP) =  -1594.83450466     A.U. after   11 cycles
 SCF Done:  E(RB3LYP) =  -1594.83452209     A.U. after   11 cycles
 SCF Done:  E(RB3LYP) =  -1594.83453917     A.U. after   12 cycles
 SCF Done:  E(RB3LYP) =  -1594.83454180     A.U. after    8 cycles
 SCF Done:  E(RB3LYP) =  -1594.83454210     A.U. after   10 cycles
 SCF Done:  E(RB3LYP) =  -1594.83454264     A.U. after    8 cycles
 SCF Done:  E(RB3LYP) =  -1594.83454281     A.U. after    8 cycles
 SCF Done:  E(RB3LYP) =  -1594.83454287     A.U. after    8 cycles
 SCF Done:  E(RB3LYP) =  -1594.83454283     A.U. after    8 cycles
 SCF Done:  E(RB3LYP) =  -1594.83454282     A.U. after    7 cycles
 SCF Done:  E(RB3LYP) =  -1594.83454280     A.U. after    7 cycles
 Optimization completed.
    -- Stationary point found.
 Normal termination of Gaussian 09 at Wed Aug 31 17:21:15 2022.

 -------------------------------------------------------------------
 #P Geom=AllCheck Guess=TCheck SCRF=Check GenChk RB3LYP/CC-pVDZ Freq
 -------------------------------------------------------------------

 Structure from the checkpoint file:  /home/scr/lqcapf-6/Gau-55464.chk
 ---------
 Mol10.log
 ---------
 Charge =  0 Multiplicity = 1

                         Standard orientation:
 ---------------------------------------------------------------------
 Center     Atomic      Atomic             Coordinates (Angstroms)
 Number     Number       Type             X           Y           Z
 ---------------------------------------------------------------------
      1          7           0        6.871181   -1.165796    0.629048
      2          6           0        5.794435   -2.020531    0.521052
      3          8           0        5.900153   -3.220627    0.731962
      4          6           0        4.478192   -1.388951    0.166300
      5          6           0        3.431932   -2.235210   -0.229597
      6          6           0        2.181705   -1.731368   -0.573808
      7          6           0        1.938949   -0.346373   -0.512251
      8          6           0        2.975187    0.504986   -0.091742
      9          6           0        4.228015   -0.012237    0.239652
     10          7           0        0.678475    0.211739   -0.905926
     11          6           0        0.675982    1.536576   -1.541357
     12          6           0        0.337229    2.699936   -0.631506
     13          6           0        0.081234    4.021081   -1.132843
     14          6           0       -0.191288    4.926788   -0.143007
     15         16           0       -0.145771    4.189734    1.428718
     16          6           0        0.247673    2.644167    0.738589
     17          6           0       -0.514456   -0.462519   -0.655386
     18          8           0       -0.579418   -1.509571   -0.040440
     19          6           0       -1.793244    0.201403   -1.207051
     20          7           0       -2.958182   -0.618453   -0.997296
     21          7           0       -3.545645   -1.224511   -2.075892
     22          7           0       -4.571759   -1.897107   -1.684988
     23          6           0       -4.691741   -1.754508   -0.315713
     24          6           0       -5.642264   -2.275414    0.579932
     25          6           0       -5.506951   -1.942857    1.920387
     26          6           0       -4.448575   -1.113099    2.371092
     27          6           0       -3.498317   -0.593431    1.501253
     28          6           0       -3.643327   -0.929598    0.145230
     29          1           0        6.876503   -0.306517    0.092273
     30          1           0        7.768828   -1.630744    0.722589
     31          1           0        3.625457   -3.307938   -0.268170
     32          1           0        1.390371   -2.410181   -0.879879
     33          1           0        2.802783    1.577064    0.006410
     34          1           0        4.998151    0.675115    0.595697
     35          1           0        1.672500    1.684403   -1.982558
     36          1           0       -0.018167    1.529734   -2.395694
     37          1           0        0.098190    4.280968   -2.192597
     38          1           0       -0.422977    5.985139   -0.244387
     39          1           0        0.396845    1.780955    1.383994
     40          1           0       -1.936495    1.192592   -0.748073
     41          1           0       -1.720978    0.338334   -2.295079
     42          1           0       -6.449350   -2.914696    0.219127
     43          1           0       -6.223518   -2.327404    2.648977
     44          1           0       -4.375723   -0.882484    3.436269
     45          1           0       -2.676666    0.027361    1.859465
 ---------------------------------------------------------------------

 SCF Done:  E(RB3LYP) =  -1594.83454280     A.U. after    1 cycles

 The electronic state is 1-A.
 Alpha  occ. eigenvalues --  -88.92811 -19.13334 -19.10818 -14.41216 -14.39487
 Alpha  occ. eigenvalues --  -14.39029 -14.35366 -14.34810 -10.31409 -10.29176
 Alpha  occ. eigenvalues --  -10.26422 -10.26042 -10.25292 -10.23657 -10.23432
 Alpha  occ. eigenvalues --  -10.23203 -10.22554 -10.21621 -10.21224 -10.21105
 Alpha  occ. eigenvalues --  -10.20911 -10.20623 -10.20420 -10.20115 -10.20063
 Alpha  occ. eigenvalues --  -10.20049 -10.19871 -10.19456  -7.99014  -5.95338
 Alpha  occ. eigenvalues --   -5.94957  -5.94650  -1.09487  -1.06543  -1.03619
 Alpha  occ. eigenvalues --   -0.97341  -0.92588  -0.90604  -0.90255  -0.86820
 Alpha  occ. eigenvalues --   -0.86431  -0.79616  -0.78470  -0.77321  -0.76388
 Alpha  occ. eigenvalues --   -0.76067  -0.74965  -0.74200  -0.70826  -0.66808
 Alpha  occ. eigenvalues --   -0.64907  -0.62817  -0.62381  -0.61055  -0.59278
 Alpha  occ. eigenvalues --   -0.58413  -0.57299  -0.56498  -0.55040  -0.54158
 Alpha  occ. eigenvalues --   -0.52997  -0.52612  -0.52007  -0.51504  -0.49242
 Alpha  occ. eigenvalues --   -0.48032  -0.46919  -0.46687  -0.46145  -0.45628
 Alpha  occ. eigenvalues --   -0.44750  -0.44616  -0.43808  -0.43518  -0.43200
 Alpha  occ. eigenvalues --   -0.42833  -0.42513  -0.41726  -0.41410  -0.40614
 Alpha  occ. eigenvalues --   -0.39890  -0.39204  -0.38426  -0.37711  -0.37290
 Alpha  occ. eigenvalues --   -0.36707  -0.36533  -0.35838  -0.35585  -0.33098
 Alpha  occ. eigenvalues --   -0.31245  -0.30592  -0.28213  -0.27825  -0.27129
 Alpha  occ. eigenvalues --   -0.26693  -0.26643  -0.26069  -0.25499  -0.24963
 Alpha  occ. eigenvalues --   -0.24065  -0.23475
 Alpha virt. eigenvalues --   -0.05130  -0.04220  -0.03849  -0.02320  -0.00038
 Alpha virt. eigenvalues --    0.00734   0.01318   0.01980   0.03509   0.04023
 Alpha virt. eigenvalues --    0.04697   0.05800   0.06012   0.06553   0.07337

 Mulliken atomic charges:
              1
     1  N   -0.088306
     2  C    0.111004
     3  O   -0.244182
     4  C   -0.023812
     5  C    0.067883
     6  C    0.073900
     7  C    0.105458
     8  C    0.017961
     9  C    0.018863
    10  N   -0.280154
    11  C    0.139994
    12  C   -0.026528
    13  C    0.047683
    14  C   -0.099794
    15  S    0.165378
    16  C   -0.150060
    17  C    0.134730
    18  O   -0.233045
    19  C    0.122344
    20  N   -0.228621
    21  N   -0.061359
    22  N   -0.181250
    23  C    0.011368
    24  C    0.045001
    25  C    0.038090
    26  C    0.039947
    27  C    0.031435
    28  C    0.213131
    29  H    0.093978
    30  H    0.097525
    31  H   -0.017957
    32  H   -0.006253
    33  H   -0.018465
    34  H   -0.039999
    35  H    0.047771
    36  H    0.038851
    37  H   -0.026211
    38  H    0.020775
    39  H    0.024701
    40  H    0.061315
    41  H    0.062076
    42  H   -0.021757
    43  H   -0.026550
    44  H   -0.024863
    45  H   -0.031995
 Sum of Mulliken atomic charges =   0.00000

 Dipole moment (field-independent basis, Debye):
    X=              2.8621    Y=              7.8535    Z=             -0.2503  Tot=              8.3625
 Quadrupole moment (field-independent basis, Debye-Ang):
   XX=           -163.1993   YY=           -172.5295   ZZ=           -167.0624
   XY=             11.6357   XZ=            -20.2123   YZ=             -5.5163

  Exact polarizability: 316.938   9.659 263.818  -0.944  -0.521 221.468
 Approx polarizability: 427.506  36.517 437.299   3.211   1.904 425.077

                     1                      2                      3
                     A                      A                      A
 Frequencies --    12.1264                20.2559                25.2004
 Red. masses --     6.5059                 6.4518                 7.1778
 Frc consts  --     0.0006                 0.0016                 0.0027
 IR Inten    --     1.3230                 1.4610                 1.1921

                     4                      5                      6
                     A                      A                      A
 Frequencies --    28.1885                33.7310                46.0927
 Red. masses --     5.3454                 5.2272                 5.6618
 Frc consts  --     0.0025                 0.0035                 0.0071
 IR Inten    --     0.6248                 0.4491                 2.3987

                     7                      8                      9
                     A                      A                      A
 Frequencies --    59.2671                69.0583                75.0777
 Red. masses --     7.4326                 6.2225                 5.6598
 Frc consts  --     0.0154                 0.0175                 0.0188
 IR Inten    --     0.1802                 0.9060                 4.0705

                    10                     11                     12
                     A                      A                      A
 Frequencies --    87.9933               132.5025               163.8690
 Red. masses --     5.9237                 6.9088                 5.5927
 Frc consts  --     0.0270                 0.0715                 0.0885
 IR Inten    --     2.3462                 1.4807                 7.6324

                    13                     14                     15
                     A                      A                      A
 Frequencies --   181.1536               195.9665               219.7851
 Red. masses --     6.5877                 6.7707                 6.3499
 Frc consts  --     0.1274                 0.1532                 0.1807
 IR Inten    --     2.5122                 1.0780                 0.6747

                    16                     17                     18
                     A                      A                      A
 Frequencies --   229.5072               239.3323               252.5782
 Red. masses --     5.4202                 5.8897                 2.9308
 Frc consts  --     0.1682                 0.1988                 0.1102
 IR Inten    --     2.7348                 6.6896                 3.0893

                    19                     20                     21
                     A                      A                      A
 Frequencies --   298.3963               310.3960               348.2123
 Red. masses --     3.8499                 5.0568                 4.7776
 Frc consts  --     0.2020                 0.2871                 0.3413
 IR Inten    --     0.7520                 2.2942                 0.1253

                    22                     23                     24
                     A                      A                      A
 Frequencies --   360.5852               408.1620               412.9071
 Red. masses --     4.7353                 1.4598                 3.0348
 Frc consts  --     0.3628                 0.1433                 0.3049
 IR Inten    --     8.6951                97.9329                40.4892

                    25                     26                     27
                     A                      A                      A
 Frequencies --   423.6506               439.1517               443.8649
 Red. masses --     3.5746                 2.8939                 3.2405
 Frc consts  --     0.3780                 0.3288                 0.3762
 IR Inten    --     4.3201                 1.4526                 4.3658

                    28                     29                     30
                     A                      A                      A
 Frequencies --   457.9729               476.2636               489.1027
 Red. masses --     4.7612                 3.9370                 3.2204
 Frc consts  --     0.5884                 0.5262                 0.4539
 IR Inten    --     0.0958                 5.4341                30.0418

                    31                     32                     33
                     A                      A                      A
 Frequencies --   516.2472               540.4113               561.5015
 Red. masses --     2.6531                 4.8075                 1.6388
 Frc consts  --     0.4166                 0.8272                 0.3044
 IR Inten    --    11.6832                 2.8622                21.3678

                    34                     35                     36
                     A                      A                      A
 Frequencies --   569.6264               583.5233               588.4822
 Red. masses --     4.8142                 3.8419                 3.3977
 Frc consts  --     0.9204                 0.7708                 0.6933
 IR Inten    --     1.1522                 2.3078                13.4892

                    37                     38                     39
                     A                      A                      A
 Frequencies --   597.1719               605.2277               629.8444
 Red. masses --     5.3022                 3.3793                 4.8778
 Frc consts  --     1.1141                 0.7293                 1.1401
 IR Inten    --     4.9498                 8.5874                29.1167

                    40                     41                     42
                     A                      A                      A
 Frequencies --   645.3445               669.4454               679.0535
 Red. masses --     6.5283                 7.3583                 5.5083
 Frc consts  --     1.6019                 1.9429                 1.4965
 IR Inten    --     0.2916                 6.4433                 3.4423

                    43                     44                     45
                     A                      A                      A
 Frequencies --   689.0214               696.8942               709.9836
 Red. masses --     5.3292                 1.2608                 4.2377
 Frc consts  --     1.4907                 0.3608                 1.2586
 IR Inten    --    12.6268                 3.3923                24.1105

                    46                     47                     48
                     A                      A                      A
 Frequencies --   724.1572               759.6809               781.9436
 Red. masses --     3.5350                 1.3846                 1.2825
 Frc consts  --     1.0922                 0.4708                 0.4620
 IR Inten    --    24.7061                47.0549                34.3353

                    49                     50                     51
                     A                      A                      A
 Frequencies --   786.3768               788.9685               789.9498
 Red. masses --     3.4026                 4.2950                 3.9130
 Frc consts  --     1.2397                 1.5752                 1.4387
 IR Inten    --     1.7666                 4.1202                22.4984

                    52                     53                     54
                     A                      A                      A
 Frequencies --   801.1421               832.5274               834.8237
 Red. masses --     5.4152                 5.1073                 5.3979
 Frc consts  --     2.0478                 2.0856                 2.2165
 IR Inten    --     6.1711                27.6683                33.9598

                    55                     56                     57
                     A                      A                      A
 Frequencies --   843.1256               864.3156               865.8940
 Red. masses --     1.2880                 1.8490                 2.5516
 Frc consts  --     0.5395                 0.8138                 1.1272
 IR Inten    --     2.4071                 3.7221                14.0055

                    58                     59                     60
                     A                      A                      A
 Frequencies --   868.7336               883.5092               895.3882
 Red. masses --     3.0970                 2.1003                 1.3709
 Frc consts  --     1.3771                 0.9660                 0.6476
 IR Inten    --     7.2878                17.8528                 0.9569

                    61                     62                     63
                     A                      A                      A
 Frequencies --   922.3832               951.8376               958.5642
 Red. masses --     4.8176                 3.2871                 1.3774
 Frc consts  --     2.4149                 1.7547                 0.7457
 IR Inten    --     3.4938                 5.4262                 2.4268

                    64                     65                     66
                     A                      A                      A
 Frequencies --   961.5336               971.1100               997.7209
 Red. masses --     3.4662                 1.3483                 1.2915
 Frc consts  --     1.8881                 0.7492                 0.7574
 IR Inten    --    80.6355                 0.3787                 0.0945

                    67                     68                     69
                     A                      A                      A
 Frequencies --  1002.8576              1007.5389              1024.6759
 Red. masses --     2.3001                 1.3596                 2.0296
 Frc consts  --     1.3630                 0.8132                 1.2555
 IR Inten    --    38.9706                 2.5128                 8.4302

                    70                     71                     72
                     A                      A                      A
 Frequencies --  1027.7225              1088.6257              1090.8328
 Red. masses --     2.8146                 1.1093                 1.9421
 Frc consts  --     1.7516                 0.7746                 1.3615
 IR Inten    --     2.9133                 6.6628                12.7865

                    73                     74                     75
                     A                      A                      A
 Frequencies --  1094.7539              1123.4348              1128.2175
 Red. masses --     3.1817                 3.3530                 2.1498
 Frc consts  --     2.2467                 2.4934                 1.6122
 IR Inten    --    72.6704                13.5496                 7.2430

                    76                     77                     78
                     A                      A                      A
 Frequencies --  1139.8241              1146.2143              1150.0946
 Red. masses --     1.6795                 1.4309                 1.7905
 Frc consts  --     1.2856                 1.1076                 1.3954
 IR Inten    --     0.5622                 2.0842                 7.7764

                    79                     80                     81
                     A                      A                      A
 Frequencies --  1163.5224              1177.7991              1204.7858
 Red. masses --     1.7130                 1.5596                 1.2546
 Frc consts  --     1.3663                 1.2747                 1.0730
 IR Inten    --    15.6108                 7.8963               118.3521

                    82                     83                     84
                     A                      A                      A
 Frequencies --  1214.1049              1218.3363              1256.5479
 Red. masses --     1.4694                 1.6168                 3.1163
 Frc consts  --     1.2762                 1.4140                 2.8990
 IR Inten    --    24.7206               158.4517                57.1838

                    85                     86                     87
                     A                      A                      A
 Frequencies --  1270.2095              1295.2130              1318.6560
 Red. masses --     2.6618                 1.7050                 1.6345
 Frc consts  --     2.5303                 1.6852                 1.6745
 IR Inten    --    10.0245                 4.6565                60.0625

                    88                     89                     90
                     A                      A                      A
 Frequencies --  1321.7427              1337.3927              1348.9896
 Red. masses --     1.3682                 1.6978                 1.6442
 Frc consts  --     1.4083                 1.7892                 1.7628
 IR Inten    --     8.4636                52.1569                69.9114

                    91                     92                     93
                     A                      A                      A
 Frequencies --  1355.5976              1371.4125              1376.6983
 Red. masses --     5.1208                 4.0955                 4.2450
 Frc consts  --     5.5444                 4.5384                 4.7403
 IR Inten    --    53.2601               312.1103                19.1914

                    94                     95                     96
                     A                      A                      A
 Frequencies --  1403.6186              1420.4916              1429.1014
 Red. masses --     2.0817                 2.4932                 2.9794
 Frc consts  --     2.4164                 2.9640                 3.5851
 IR Inten    --   238.2756                17.3461                 2.0201

                    97                     98                     99
                     A                      A                      A
 Frequencies --  1435.5778              1441.0973              1450.3241
 Red. masses --     2.0360                 2.6473                 2.9282
 Frc consts  --     2.4721                 3.2392                 3.6290
 IR Inten    --     7.1360                43.6858                 9.5308

                   100                    101                    102
                     A                      A                      A
 Frequencies --  1468.8074              1473.1736              1489.9709
 Red. masses --     2.5101                 1.5074                 3.5693
 Frc consts  --     3.1905                 1.9274                 4.6686
 IR Inten    --     6.4888                23.9309                24.0528

                   103                    104                    105
                     A                      A                      A
 Frequencies --  1529.9508              1538.9181              1592.8156
 Red. masses --     3.7948                 2.5554                 5.8003
 Frc consts  --     5.2335                 3.5656                 8.6703
 IR Inten    --    19.9829                73.1150                 1.0526

                   106                    107                    108
                     A                      A                      A
 Frequencies --  1595.3662              1616.5631              1635.8782
 Red. masses --     1.2771                 7.2667                 7.3692
 Frc consts  --     1.9152                11.1886                11.6190
 IR Inten    --   141.2951                 5.8344                 2.6436

                   109                    110                    111
                     A                      A                      A
 Frequencies --  1657.1422              1669.1049              1774.8000
 Red. masses --     6.1482                 7.4624                 9.8951
 Frc consts  --     9.9477                12.2489                18.3641
 IR Inten    --   111.1817                12.4333                61.3165

                   112                    113                    114
                     A                      A                      A
 Frequencies --  1777.6090              3049.8328              3055.7010
 Red. masses --    11.2155                 1.0639                 1.0630
 Frc consts  --    20.8806                 5.8305                 5.8479
 IR Inten    --   423.2763                20.3592                19.7193

                   115                    116                    117
                     A                      A                      A
 Frequencies --  3087.4152              3119.6856              3179.6539
 Red. masses --     1.1012                 1.1001                 1.0858
 Frc consts  --     6.1845                 6.3083                 6.4681
 IR Inten    --     9.9162                 4.1484                 1.8310

                   118                    119                    120
                     A                      A                      A
 Frequencies --  3184.6482              3193.6458              3201.8119
 Red. masses --     1.0879                 1.0900                 1.0910
 Frc consts  --     6.5007                 6.5501                 6.5900
 IR Inten    --    10.2920                11.8799                 2.8395

                   121                    122                    123
                     A                      A                      A
 Frequencies --  3206.7314              3208.2861              3212.3983
 Red. masses --     1.0939                 1.0948                 1.0971
 Frc consts  --     6.6275                 6.6396                 6.6706
 IR Inten    --     3.5280                15.3237                 6.6778

                   124                    125                    126
                     A                      A                      A
 Frequencies --  3212.9082              3247.3851              3252.2328
 Red. masses --     1.0904                 1.0944                 1.0989
 Frc consts  --     6.6319                 6.7998                 6.8479
 IR Inten    --     0.3173                 1.5408                 0.9245

                   127                    128                    129
                     A                      A                      A
 Frequencies --  3254.4357              3550.6448              3677.4851
 Red. masses --     1.0933                 1.0470                 1.1014
 Frc consts  --     6.8226                 7.7767                 8.7760
 IR Inten    --     0.2980                37.8194                27.0775

 - Thermochemistry -
 -------------------
 Temperature   298.150 Kelvin.  Pressure   1.00000 Atm.
 Atom     1 has atomic number  7 and mass  14.00307

 Molecular mass:   391.11030 amu.
 Principal axes and moments of inertia in atomic units:
                           1         2         3
     Eigenvalues --  8864.21350********************
           X            0.99997   0.00434  -0.00641
           Y           -0.00444   0.99986  -0.01614
           Z            0.00634   0.01616   0.99985
 This molecule is an asymmetric top.
 Rotational symmetry number  1.
 Warning -- assumption of classical behavior for rotation
           may cause significant error
 Rotational temperatures (Kelvin)      0.00977     0.00450     0.00351
 Rotational constants (GHZ):           0.20360     0.09371     0.07320
 Zero-point vibrational energy     902324.2 (Joules/Mol)
                                  215.66066 (Kcal/Mol)
 Warning -- explicit consideration of  38 degrees of freedom as
           vibrations may cause significant error
 Vibrational temperatures:     17.45    29.14    36.26    40.56    48.53
          (Kelvin)             66.32    85.27    99.36   108.02   126.60
                              190.64   235.77   260.64   281.95   316.22
                              330.21   344.35   363.40   429.33   446.59
                              501.00   518.80   587.25   594.08   609.54
                              631.84   638.62   658.92   685.24   703.71
                              742.76   777.53   807.87   819.56   839.56
                              846.69   859.20   870.79   906.20   928.51
                              963.18   977.01   991.35  1002.67  1021.51
                             1041.90  1093.01  1125.04  1131.42  1135.15
                             1136.56  1152.66  1197.82  1201.12  1213.07
                             1243.56  1245.83  1249.91  1271.17  1288.26
                             1327.10  1369.48  1379.16  1383.43  1397.21
                             1435.50  1442.89  1449.62  1474.28  1478.66
                             1566.29  1569.46  1575.10  1616.37  1623.25
                             1639.95  1649.14  1654.73  1674.05  1694.59
                             1733.42  1746.82  1752.91  1807.89  1827.55
                             1863.52  1897.25  1901.69  1924.21  1940.89
                             1950.40  1973.15  1980.76  2019.49  2043.77
                             2056.16  2065.47  2073.42  2086.69  2113.28
                             2119.57  2143.73  2201.26  2214.16  2291.70
                             2295.37  2325.87  2353.66  2384.26  2401.47
                             2553.54  2557.58  4388.02  4396.47  4442.10
                             4488.53  4574.81  4581.99  4594.94  4606.69
                             4613.77  4616.00  4621.92  4622.65  4672.26
                             4679.23  4682.40  5108.58  5291.07

 Zero-point correction=                           0.343677 (Hartree/Particle)
 Thermal correction to Energy=                    0.367392
 Thermal correction to Enthalpy=                  0.368336
 Thermal correction to Gibbs Free Energy=         0.285585
 Sum of electronic and zero-point Energies=          -1594.490866
 Sum of electronic and thermal Energies=             -1594.467151
 Sum of electronic and thermal Enthalpies=           -1594.466207
 Sum of electronic and thermal Free Energies=        -1594.548958

                     E (Thermal)             CV                S
                      KCal/Mol        Cal/Mol-Kelvin    Cal/Mol-Kelvin
 Total                  230.542             91.868            174.165
 Electronic               0.000              0.000              0.000
 Translational            0.889              2.981             43.783
 Rotational               0.889              2.981             36.685
 Vibrational            228.764             85.906             93.696
 Vibration     1          0.593              1.987              7.628
 Vibration     2          0.593              1.986              6.609
 Vibration     3          0.593              1.985              6.175
 Vibration     4          0.593              1.984              5.953
 Vibration     5          0.594              1.983              5.597
 Vibration     6          0.595              1.979              4.978
 Vibration     7          0.597              1.974              4.481
 Vibration     8          0.598              1.969              4.180
 Vibration     9          0.599              1.966              4.016
 Vibration    10          0.601              1.958              3.704
 Vibration    11          0.613              1.921              2.909
 Vibration    12          0.623              1.887              2.505
 Vibration    13          0.630              1.865              2.316
 Vibration    14          0.636              1.846              2.171
 Vibration    15          0.647              1.811              1.961
 Vibration    16          0.652              1.796              1.883
 Vibration    17          0.657              1.780              1.808
 Vibration    18          0.664              1.758              1.713
 Vibration    19          0.691              1.677              1.426
 Vibration    20          0.699              1.654              1.360
 Vibration    21          0.726              1.579              1.174
 Vibration    22          0.735              1.553              1.120
 Vibration    23          0.773              1.452              0.933
 Vibration    24          0.777              1.442              0.916
 Vibration    25          0.786              1.419              0.880
 Vibration    26          0.799              1.385              0.829
 Vibration    27          0.803              1.374              0.815
 Vibration    28          0.816              1.343              0.772
 Vibration    29          0.833              1.303              0.720
 Vibration    30          0.845              1.274              0.686
 Vibration    31          0.871              1.214              0.619
 Vibration    32          0.895              1.161              0.564
 Vibration    33          0.917              1.115              0.521
 Vibration    34          0.926              1.097              0.505
 Vibration    35          0.940              1.067              0.479
 Vibration    36          0.946              1.056              0.470
 Vibration    37          0.955              1.038              0.455
 Vibration    38          0.964              1.021              0.441

 Normal termination of Gaussian 09 at Wed Aug 31 18:51:51 2022.
