 Gaussian 09, Revision C.01,
 Gaussian 09:  EM64L-G09RevC.01 23-Sep-2011

 -------------------------
 #p opt freq b3lyp/cc-pvdz
 -------------------------

 (Enter /opt/gaussian/l101.exe)
 ---------
 Mol18.log
 ---------
 Charge =  0 Multiplicity = 1

 SCF Done:  E(RB3LYP) =  -1690.44344840     A.U. after   15 cycles
 SCF Done:  E(RB3LYP) =  -1690.45506149     A.U. after   13 cycles
 SCF Done:  E(RB3LYP) =  -1690.45591812     A.U. after   13 cycles
 SCF Done:  E(RB3LYP) =  -1690.45612825     A.U. after   12 cycles
 SCF Done:  E(RB3LYP) =  -1690.45609892     A.U. after   13 cycles
 SCF Done:  E(RB3LYP) =  -1690.45626888     A.U. after   12 cycles
 SCF Done:  E(RB3LYP) =  -1690.45630254     A.U. after   10 cycles
 SCF Done:  E(RB3LYP) =  -1690.45631616     A.U. after   11 cycles
 SCF Done:  E(RB3LYP) =  -1690.45632290     A.U. after   10 cycles
 SCF Done:  E(RB3LYP) =  -1690.45632680     A.U. after   10 cycles
 SCF Done:  E(RB3LYP) =  -1690.45634312     A.U. after   10 cycles
 SCF Done:  E(RB3LYP) =  -1690.45634540     A.U. after   10 cycles
 SCF Done:  E(RB3LYP) =  -1690.45634771     A.U. after    9 cycles
 SCF Done:  E(RB3LYP) =  -1690.45635224     A.U. after    9 cycles
 SCF Done:  E(RB3LYP) =  -1690.45635698     A.U. after   10 cycles
 SCF Done:  E(RB3LYP) =  -1690.45635927     A.U. after   10 cycles
 SCF Done:  E(RB3LYP) =  -1690.45635965     A.U. after    8 cycles
 SCF Done:  E(RB3LYP) =  -1690.45635970     A.U. after    7 cycles
 SCF Done:  E(RB3LYP) =  -1690.45635971     A.U. after    7 cycles
 Optimization completed.
    -- Stationary point found.
 Normal termination of Gaussian 09 at Sat Sep  3 10:23:29 2022.

 -------------------------------------------------------------------
 #P Geom=AllCheck Guess=TCheck SCRF=Check GenChk RB3LYP/CC-pVDZ Freq
 -------------------------------------------------------------------

 Structure from the checkpoint file:  /home/scr/lqcapf-6/Gau-167371.chk
 ---------
 Mol18.log
 ---------
 Charge =  0 Multiplicity = 1

                         Standard orientation:
 ---------------------------------------------------------------------
 Center     Atomic      Atomic             Coordinates (Angstroms)
 Number     Number       Type             X           Y           Z
 ---------------------------------------------------------------------
      1          6           0       -8.268713   -2.503508    0.806061
      2          7           0       -7.234919   -1.545739    0.464460
      3          6           0       -5.908116   -1.779310    0.284334
      4          6           0       -5.299195   -0.546344    0.056854
      5          6           0       -6.385251    0.370587    0.130841
      6          7           0       -7.544981   -0.236753    0.375955
      7          6           0       -3.881260   -0.266772   -0.204511
      8          6           0       -3.012158   -1.254902   -0.706071
      9          6           0       -1.666184   -0.996890   -0.949837
     10          6           0       -1.133601    0.278876   -0.700738
     11          6           0       -1.987154    1.275421   -0.203215
     12          6           0       -3.334369    1.005024    0.037002
     13          7           0        0.240300    0.585901   -0.990445
     14          6           0        0.551094    1.915039   -1.531124
     15          6           0        1.074793    2.925952   -0.530659
     16          6           0        1.606934    4.199144   -0.928703
     17          6           0        2.009592    4.967659    0.130276
     18         16           0        1.752632    4.155599    1.643772
     19          6           0        1.093568    2.766094    0.833831
     20          6           0        1.241869   -0.341944   -0.737322
     21          8           0        1.044271   -1.420396   -0.207911
     22          6           0        2.665491    0.066371   -1.171528
     23          7           0        3.617243   -0.994331   -0.960479
     24          7           0        4.142285   -1.642998   -2.045406
     25          7           0        4.975899   -2.541291   -1.648252
     26          6           0        5.023499   -2.512129   -0.267644
     27          6           0        5.778050   -3.276167    0.640190
     28          6           0        5.617803   -3.005224    1.991730
     29          6           0        4.724178   -1.999561    2.441419
     30          6           0        3.967722   -1.238600    1.559343
     31          6           0        4.138018   -1.513837    0.192507
     32          1           0       -8.492416   -2.475287    1.884864
     33          1           0       -9.181561   -2.255355    0.248135
     34          1           0       -7.934120   -3.512939    0.531467
     35          1           0       -5.495448   -2.782531    0.348866
     36          1           0       -6.368188    1.449301   -0.013336
     37          1           0       -3.401457   -2.249203   -0.935640
     38          1           0       -1.027144   -1.787850   -1.334953
     39          1           0       -1.600032    2.270338    0.020887
     40          1           0       -3.964180    1.797292    0.446371
     41          1           0        1.271891    1.816959   -2.358197
     42          1           0       -0.371287    2.295520   -1.994072
     43          1           0        1.685553    4.524512   -1.967384
     44          1           0        2.447639    5.963544    0.111037
     45          1           0        0.748532    1.911068    1.411475
     46          1           0        2.696018    0.280829   -2.248965
     47          1           0        2.983354    0.974718   -0.635637
     48          1           0        6.459421   -4.048300    0.279841
     49          1           0        6.184786   -3.576420    2.729658
     50          1           0        4.623779   -1.824362    3.514904
     51          1           0        3.268135   -0.481635    1.914572
 ---------------------------------------------------------------------

 SCF Done:  E(RB3LYP) =  -1690.45635971     A.U. after    1 cycles

 The electronic state is 1-A.
 Alpha  occ. eigenvalues --  -88.92313 -19.12485 -14.41099 -14.40898 -14.38730
 Alpha  occ. eigenvalues --  -14.38576 -14.34516 -14.34307 -10.30611 -10.25736
 Alpha  occ. eigenvalues --  -10.25508 -10.24063 -10.23802 -10.23172 -10.22911
 Alpha  occ. eigenvalues --  -10.22897 -10.22405 -10.21997 -10.21115 -10.20846
 Alpha  occ. eigenvalues --  -10.20531 -10.20472 -10.20169 -10.19856 -10.19819
 Alpha  occ. eigenvalues --  -10.19653 -10.19571 -10.19446 -10.19390 -10.19248
 Alpha  occ. eigenvalues --  -10.19101  -7.98517  -5.94841  -5.94461  -5.94152
 Alpha  occ. eigenvalues --   -1.09170  -1.05694  -1.05300  -0.96435  -0.92220
 Alpha  occ. eigenvalues --   -0.89724  -0.86425  -0.86177  -0.84464  -0.80399
 Alpha  occ. eigenvalues --   -0.78427  -0.77752  -0.76828  -0.75404  -0.75273
 Alpha  occ. eigenvalues --   -0.74450  -0.73725  -0.70529  -0.69826  -0.65075
 Alpha  occ. eigenvalues --   -0.64626  -0.62213  -0.61938  -0.60521  -0.58756
 Alpha  occ. eigenvalues --   -0.58365  -0.56810  -0.56687  -0.55911  -0.53992
 Alpha  occ. eigenvalues --   -0.53298  -0.52581  -0.52208  -0.51520  -0.50436
 Alpha  occ. eigenvalues --   -0.48137  -0.47892  -0.47612  -0.46467  -0.46018
 Alpha  occ. eigenvalues --   -0.45849  -0.45133  -0.44413  -0.44208  -0.43900
 Alpha  occ. eigenvalues --   -0.43079  -0.42960  -0.42369  -0.42109  -0.41838
 Alpha  occ. eigenvalues --   -0.40878  -0.40273  -0.40133  -0.39650  -0.39054
 Alpha  occ. eigenvalues --   -0.38570  -0.37562  -0.37470  -0.37075  -0.36449
 Alpha  occ. eigenvalues --   -0.36048  -0.35362  -0.34966  -0.32805  -0.30977
 Alpha  occ. eigenvalues --   -0.30812  -0.29041  -0.27447  -0.26703  -0.26423
 Alpha  occ. eigenvalues --   -0.26313  -0.25819  -0.25505  -0.25389  -0.24697
 Alpha  occ. eigenvalues --   -0.23231  -0.21155
 Alpha virt. eigenvalues --   -0.03965  -0.03343  -0.03215  -0.01452   0.00669
 Alpha virt. eigenvalues --    0.01001   0.01711   0.01811   0.02495   0.03797
 Alpha virt. eigenvalues --    0.05020   0.05515   0.06295   0.06839   0.07037

 Mulliken atomic charges:
              1
     1  C    0.103395
     2  N   -0.132964
     3  C    0.126438
     4  C   -0.078201
     5  C    0.089561
     6  N   -0.177218
     7  C    0.065280
     8  C   -0.005261
     9  C    0.085234
    10  C    0.090437
    11  C    0.026973
    12  C   -0.002504
    13  N   -0.278945
    14  C    0.141803
    15  C   -0.024907
    16  C    0.047888
    17  C   -0.100112
    18  S    0.161457
    19  C   -0.150459
    20  C    0.129419
    21  O   -0.240670
    22  C    0.122294
    23  N   -0.227252
    24  N   -0.061565
    25  N   -0.182956
    26  C    0.010721
    27  C    0.044119
    28  C    0.037573
    29  C    0.039008
    30  C    0.032441
    31  C    0.213247
    32  H    0.048785
    33  H    0.049720
    34  H    0.033409
    35  H   -0.002702
    36  H   -0.018523
    37  H   -0.045204
    38  H   -0.017471
    39  H   -0.023723
    40  H   -0.042527
    41  H    0.037050
    42  H    0.048656
    43  H   -0.027129
    44  H    0.019347
    45  H    0.024282
    46  H    0.060609
    47  H    0.059902
    48  H   -0.023070
    49  H   -0.027885
    50  H   -0.026103
    51  H   -0.031697
 Sum of Mulliken atomic charges =   0.00000

 Dipole moment (field-independent basis, Debye):
    X=             -2.4723    Y=              2.8928    Z=              1.4596  Tot=              4.0757
 Quadrupole moment (field-independent basis, Debye-Ang):
   XX=           -189.6962   YY=           -168.8487   ZZ=           -184.7760
   XY=             31.9537   XZ=              9.4709   YZ=            -13.0274

  Exact polarizability: 389.590   2.910 306.212  -6.898  -3.863 242.822
 Approx polarizability: 504.217 -20.115 504.477 -17.758  -1.054 459.053

                     1                      2                      3
                     A                      A                      A
 Frequencies --    10.5103                19.1983                21.3271
 Red. masses --     6.3567                 6.8269                 4.6073
 Frc consts  --     0.0004                 0.0015                 0.0012
 IR Inten    --     1.0618                 0.4641                 1.9075

                     4                      5                      6
                     A                      A                      A
 Frequencies --    24.1168                28.2365                38.8111
 Red. masses --     5.9449                 5.0849                 4.8503
 Frc consts  --     0.0020                 0.0024                 0.0043
 IR Inten    --     1.3708                 0.5316                 0.5211

                     7                      8                      9
                     A                      A                      A
 Frequencies --    50.2056                57.5361                58.6037
 Red. masses --     4.4746                 4.2789                 1.1830
 Frc consts  --     0.0066                 0.0083                 0.0024
 IR Inten    --     0.4372                 0.7553                 0.5423

                    10                     11                     12
                     A                      A                      A
 Frequencies --    68.3184                79.3418                93.2315
 Red. masses --     5.3711                 7.2149                 5.5504
 Frc consts  --     0.0148                 0.0268                 0.0284
 IR Inten    --     0.3567                 2.6438                 1.4344

                    13                     14                     15
                     A                      A                      A
 Frequencies --   121.7633               161.4692               173.4284
 Red. masses --     5.3808                 4.7558                 5.8022
 Frc consts  --     0.0470                 0.0731                 0.1028
 IR Inten    --     0.8073                 1.5666                 0.5341

                    16                     17                     18
                     A                      A                      A
 Frequencies --   188.8646               210.2995               218.6010
 Red. masses --     5.9522                 4.9280                 5.3622
 Frc consts  --     0.1251                 0.1284                 0.1510
 IR Inten    --     1.4621                 1.8958                 2.6607

                    19                     20                     21
                     A                      A                      A
 Frequencies --   231.5694               247.5587               267.2514
 Red. masses --     5.8093                 3.3072                 4.2909
 Frc consts  --     0.1835                 0.1194                 0.1806
 IR Inten    --     0.4625                 2.7854                 1.5472

                    22                     23                     24
                     A                      A                      A
 Frequencies --   292.3792               312.8739               347.4415
 Red. masses --     4.8561                 3.8100                 6.2016
 Frc consts  --     0.2446                 0.2197                 0.4411
 IR Inten    --     0.7358                 3.2311                 2.4442

                    25                     26                     27
                     A                      A                      A
 Frequencies --   351.0319               394.6545               414.8239
 Red. masses --     3.6844                 7.0660                 3.2091
 Frc consts  --     0.2675                 0.6484                 0.3254
 IR Inten    --     1.9054                18.0870                 2.3555

                    28                     29                     30
                     A                      A                      A
 Frequencies --   426.0459               437.1708               439.6407
 Red. masses --     3.9380                 3.5783                 2.9205
 Frc consts  --     0.4211                 0.4029                 0.3326
 IR Inten    --     0.1380                 0.1278                 2.3321

                    31                     32                     33
                     A                      A                      A
 Frequencies --   458.3281               476.4355               477.3372
 Red. masses --     4.6844                 4.2485                 3.7085
 Frc consts  --     0.5798                 0.5682                 0.4979
 IR Inten    --     0.0122                 1.6980                 2.4483

                    34                     35                     36
                     A                      A                      A
 Frequencies --   537.2091               544.8076               570.9000
 Red. masses --     4.4574                 3.2885                 5.6430
 Frc consts  --     0.7579                 0.5751                 1.0836
 IR Inten    --     1.6132                 9.3356                 0.3463

                    37                     38                     39
                     A                      A                      A
 Frequencies --   583.1967               586.8645               600.8822
 Red. masses --     4.0664                 4.0914                 4.1893
 Frc consts  --     0.8149                 0.8302                 0.8912
 IR Inten    --     1.7276                 1.0172                 2.9734

                    40                     41                     42
                     A                      A                      A
 Frequencies --   607.6812               635.7056               645.5002
 Red. masses --     3.9868                 4.1089                 6.4270
 Frc consts  --     0.8674                 0.9783                 1.5778
 IR Inten    --    23.1942                 2.1992                 1.8215

                    43                     44                     45
                     A                      A                      A
 Frequencies --   651.9452               669.8139               677.5906
 Red. masses --     6.2140                 7.0412                 3.5032
 Frc consts  --     1.5561                 1.8613                 0.9477
 IR Inten    --     1.2848                 4.1696                 8.6375

                    46                     47                     48
                     A                      A                      A
 Frequencies --   681.1817               692.6578               695.9488
 Red. masses --     5.5979                 4.4635                 1.2753
 Frc consts  --     1.5304                 1.2617                 0.3639
 IR Inten    --     1.1391                18.1403                 1.3335

                    49                     50                     51
                     A                      A                      A
 Frequencies --   724.0216               750.1655               759.8949
 Red. masses --     4.5371                 3.2771                 1.3864
 Frc consts  --     1.4013                 1.0866                 0.4717
 IR Inten    --     8.5546                 6.1642                44.9045

                    52                     53                     54
                     A                      A                      A
 Frequencies --   777.0767               782.4920               786.5608
 Red. masses --     5.4873                 1.2365                 3.4235
 Frc consts  --     1.9523                 0.4461                 1.2479
 IR Inten    --    11.7690                41.0697                 1.7773

                    55                     56                     57
                     A                      A                      A
 Frequencies --   793.9679               794.4615               832.2400
 Red. masses --     1.4795                 5.1425                 5.1586
 Frc consts  --     0.5495                 1.9123                 2.1052
 IR Inten    --    14.9250                 5.2306                35.4615

                    58                     59                     60
                     A                      A                      A
 Frequencies --   833.9018               836.7951               855.4803
 Red. masses --     4.7383                 1.3145                 1.5849
 Frc consts  --     1.9413                 0.5423                 0.6834
 IR Inten    --    25.7147                 3.7148                32.5154

                    61                     62                     63
                     A                      A                      A
 Frequencies --   864.2076               866.2698               871.6242
 Red. masses --     1.6664                 3.3553                 2.0541
 Frc consts  --     0.7333                 1.4835                 0.9194
 IR Inten    --     0.5163                 4.6209                12.9467

                    64                     65                     66
                     A                      A                      A
 Frequencies --   878.3336               894.8756               922.5588
 Red. masses --     2.2623                 1.3456                 4.8245
 Frc consts  --     1.0283                 0.6349                 2.4193
 IR Inten    --     8.0756                 0.2614                 3.4252

                    67                     68                     69
                     A                      A                      A
 Frequencies --   951.8289               958.1653               961.6271
 Red. masses --     3.2707                 1.3777                 3.4445
 Frc consts  --     1.7459                 0.7452                 1.8767
 IR Inten    --     5.7537                 2.8788                86.2749

                    70                     71                     72
                     A                      A                      A
 Frequencies --   968.8954               971.5872               976.0616
 Red. masses --     1.8204                 2.9605                 1.3544
 Frc consts  --     1.0069                 1.6466                 0.7602
 IR Inten    --    11.6343                29.6198                 0.9530

                    73                     74                     75
                     A                      A                      A
 Frequencies --   996.9967              1003.1642              1006.6312
 Red. masses --     1.2902                 2.3184                 3.6079
 Frc consts  --     0.7556                 1.3746                 2.1540
 IR Inten    --     0.0882                27.1830                24.0919

                    76                     77                     78
                     A                      A                      A
 Frequencies --  1024.5472              1030.3932              1065.2815
 Red. masses --     2.0093                 2.7218                 1.5846
 Frc consts  --     1.2427                 1.7026                 1.0595
 IR Inten    --     9.8307                 0.6415                22.6539

                    79                     80                     81
                     A                      A                      A
 Frequencies --  1085.3905              1088.6596              1096.0814
 Red. masses --     2.0631                 1.1100                 3.1921
 Frc consts  --     1.4320                 0.7751                 2.2595
 IR Inten    --    10.4476                 6.7463                66.1829

                    82                     83                     84
                     A                      A                      A
 Frequencies --  1127.0346              1128.3018              1129.7679
 Red. masses --     2.5807                 2.1142                 1.4487
 Frc consts  --     1.9314                 1.5858                 1.0895
 IR Inten    --    13.1885                19.1299                 3.5408

                    85                     86                     87
                     A                      A                      A
 Frequencies --  1144.1778              1145.7472              1162.7909
 Red. masses --     1.4323                 1.4292                 1.7176
 Frc consts  --     1.1048                 1.1054                 1.3683
 IR Inten    --     7.1043                 1.9358                15.4867

                    88                     89                     90
                     A                      A                      A
 Frequencies --  1177.7080              1204.4733              1209.0279
 Red. masses --     1.5603                 1.4116                 1.1747
 Frc consts  --     1.2751                 1.2066                 1.0117
 IR Inten    --     7.5539                 9.3715                12.6692

                    91                     92                     93
                     A                      A                      A
 Frequencies --  1215.0778              1224.5541              1241.0669
 Red. masses --     1.4919                 1.5903                 2.3587
 Frc consts  --     1.2977                 1.4050                 2.1405
 IR Inten    --     9.1493               251.0533                11.9603

                    94                     95                     96
                     A                      A                      A
 Frequencies --  1259.8765              1270.2549              1295.8026
 Red. masses --     3.1758                 2.6791                 1.7149
 Frc consts  --     2.9700                 2.5469                 1.6965
 IR Inten    --    55.2927                 7.4716                 2.6468

                    97                     98                     99
                     A                      A                      A
 Frequencies --  1314.2177              1319.5801              1334.5021
 Red. masses --     1.9411                 1.6756                 2.1047
 Frc consts  --     1.9753                 1.7190                 2.2084
 IR Inten    --     1.9194                58.8266                57.6630

                   100                    101                    102
                     A                      A                      A
 Frequencies --  1338.7027              1345.5008              1351.7293
 Red. masses --     3.0862                 2.2565                 1.6620
 Frc consts  --     3.2587                 2.4069                 1.7892
 IR Inten    --     8.9252                30.6114                35.7785

                   103                    104                    105
                     A                      A                      A
 Frequencies --  1375.5660              1392.8717              1409.8378
 Red. masses --     4.1379                 3.9920                 2.0996
 Frc consts  --     4.6132                 4.5631                 2.4588
 IR Inten    --    21.0727                10.2910               183.4821

                   106                    107                    108
                     A                      A                      A
 Frequencies --  1418.6033              1420.4644              1428.9995
 Red. masses --     2.3418                 2.3734                 3.2287
 Frc consts  --     2.7766                 2.8215                 3.8846
 IR Inten    --    24.6694                27.9033                 4.6242

                   109                    110                    111
                     A                      A                      A
 Frequencies --  1433.5472              1436.4841              1441.8514
 Red. masses --     1.7807                 2.5246                 2.0567
 Frc consts  --     2.1561                 3.0693                 2.5192
 IR Inten    --    63.0592                 3.6256                55.6619

                   112                    113                    114
                     A                      A                      A
 Frequencies --  1451.1361              1462.4284              1465.3955
 Red. masses --     1.1431                 2.9634                 1.5231
 Frc consts  --     1.4183                 3.7341                 1.9270
 IR Inten    --    28.1359                20.4315                13.5676

                   115                    116                    117
                     A                      A                      A
 Frequencies --  1469.7461              1474.0573              1489.6634
 Red. masses --     3.0745                 1.3864                 3.5667
 Frc consts  --     3.9130                 1.7749                 4.6633
 IR Inten    --     6.6303                23.6817                23.7653

                   118                    119                    120
                     A                      A                      A
 Frequencies --  1508.6168              1530.2625              1542.0364
 Red. masses --     1.9640                 3.8027                 2.8834
 Frc consts  --     2.6336                 5.2465                 4.0396
 IR Inten    --    48.6104                19.7075                63.2502

                   121                    122                    123
                     A                      A                      A
 Frequencies --  1593.5091              1607.7557              1617.0262
 Red. masses --     5.8333                 5.9680                 6.4066
 Frc consts  --     8.7272                 9.0890                 9.8699
 IR Inten    --     0.4840                68.0744                45.9401

                   124                    125                    126
                     A                      A                      A
 Frequencies --  1635.5341              1663.7806              1669.3420
 Red. masses --     7.3664                 6.2138                 7.4772
 Frc consts  --    11.6099                10.1344                12.2767
 IR Inten    --     2.5333                 1.8591                14.2152

                   127                    128                    129
                     A                      A                      A
 Frequencies --  1771.0081              3043.1460              3047.2057
 Red. masses --    12.0599                 1.0380                 1.0646
 Frc consts  --    22.2861                 5.6637                 5.8243
 IR Inten    --   232.1347                67.5286                22.5108

                   130                    131                    132
                     A                      A                      A
 Frequencies --  3055.8762              3086.5988              3119.2818
 Red. masses --     1.0627                 1.0998                 1.1009
 Frc consts  --     5.8472                 6.1736                 6.3113
 IR Inten    --    19.5036                 9.9903                 3.7707

                   133                    134                    135
                     A                      A                      A
 Frequencies --  3122.3811              3156.6650              3179.1145
 Red. masses --     1.0993                 1.1056                 1.0858
 Frc consts  --     6.3143                 6.4911                 6.4659
 IR Inten    --    11.7160                 5.2650                 2.0332

                   136                    137                    138
                     A                      A                      A
 Frequencies --  3183.1149              3184.6788              3193.2646
 Red. masses --     1.0896                 1.0878                 1.0901
 Frc consts  --     6.5049                 6.5002                 6.5489
 IR Inten    --    15.3064                 9.4327                12.4518

                   139                    140                    141
                     A                      A                      A
 Frequencies --  3202.0290              3203.6440              3208.7623
 Red. masses --     1.0910                 1.0943                 1.0946
 Frc consts  --     6.5904                 6.6174                 6.6405
 IR Inten    --     3.0324                 4.0866                17.2724

                   142                    143                    144
                     A                      A                      A
 Frequencies --  3212.3353              3239.3967              3243.8272
 Red. masses --     1.0971                 1.0960                 1.0932
 Frc consts  --     6.6699                 6.7765                 6.7774
 IR Inten    --     5.7510                 2.9320                 0.8514

                   145                    146                    147
                     A                      A                      A
 Frequencies --  3248.2438              3251.9021              3258.9373
 Red. masses --     1.0943                 1.0990                 1.0981
 Frc consts  --     6.8025                 6.8472                 6.8712
 IR Inten    --     1.2722                 0.9506                 0.0768

 - Thermochemistry -
 -------------------
 Temperature   298.150 Kelvin.  Pressure   1.00000 Atm.
 Atom     1 has atomic number  6 and mass  12.00000

 Molecular mass:   428.14193 amu.
 Principal axes and moments of inertia in atomic units:
                           1         2         3
     Eigenvalues --  9939.36278********************
           X            0.99996   0.00870   0.00094
           Y           -0.00868   0.99974  -0.02089
           Z           -0.00112   0.02089   0.99978
 This molecule is an asymmetric top.
 Rotational symmetry number  1.
 Warning -- assumption of classical behavior for rotation
           may cause significant error
 Rotational temperatures (Kelvin)      0.00871     0.00305     0.00251
 Rotational constants (GHZ):           0.18158     0.06356     0.05220
 Zero-point vibrational energy    1038839.2 (Joules/Mol)
                                  248.28853 (Kcal/Mol)
 Warning -- explicit consideration of  40 degrees of freedom as
           vibrations may cause significant error
 Vibrational temperatures:     15.12    27.62    30.68    34.70    40.63
          (Kelvin)             55.84    72.23    82.78    84.32    98.29
                              114.16   134.14   175.19   232.32   249.52
                              271.73   302.57   314.52   333.18   356.18
                              384.51   420.67   450.16   499.89   505.06
                              567.82   596.84   612.98   628.99   632.54
                              659.43   685.48   686.78   772.92   783.86
                              821.40   839.09   844.37   864.53   874.32
                              914.64   928.73   938.00   963.71   974.90
                              980.07   996.58  1001.31  1041.70  1079.32
                             1093.32  1118.04  1125.83  1131.68  1142.34
                             1143.05  1197.41  1199.80  1203.96  1230.84
                             1243.40  1246.37  1254.07  1263.72  1287.52
                             1327.35  1369.47  1378.58  1383.57  1394.02
                             1397.90  1404.33  1434.45  1443.33  1448.32
                             1474.09  1482.50  1532.70  1561.63  1566.34
                             1577.01  1621.55  1623.37  1625.48  1646.21
                             1648.47  1672.99  1694.46  1732.97  1739.52
                             1748.22  1761.86  1785.62  1812.68  1827.61
                             1864.37  1890.86  1898.58  1920.05  1926.09
                             1935.87  1944.83  1979.13  2004.03  2028.44
                             2041.05  2043.73  2056.01  2062.55  2066.78
                             2074.50  2087.86  2104.11  2108.37  2114.63
                             2120.84  2143.29  2170.56  2201.70  2218.64
                             2292.70  2313.20  2326.54  2353.17  2393.81
                             2401.81  2548.08  4378.40  4384.24  4396.72
                             4440.92  4487.95  4492.40  4541.73  4574.03
                             4579.79  4582.04  4594.39  4607.00  4609.32
                             4616.69  4621.83  4660.76  4667.14  4673.49
                             4678.76  4688.88

 Zero-point correction=                           0.395673 (Hartree/Particle)
 Thermal correction to Energy=                    0.421956
 Thermal correction to Enthalpy=                  0.422901
 Thermal correction to Gibbs Free Energy=         0.332995
 Sum of electronic and zero-point Energies=          -1690.060687
 Sum of electronic and thermal Energies=             -1690.034403
 Sum of electronic and thermal Enthalpies=           -1690.033459
 Sum of electronic and thermal Free Energies=        -1690.123364

                     E (Thermal)             CV                S
                      KCal/Mol        Cal/Mol-Kelvin    Cal/Mol-Kelvin
 Total                  264.782            100.887            189.222
 Electronic               0.000              0.000              0.000
 Translational            0.889              2.981             44.053
 Rotational               0.889              2.981             37.521
 Vibrational            263.004             94.926            107.648
 Vibration     1          0.593              1.987              7.912
 Vibration     2          0.593              1.986              6.715
 Vibration     3          0.593              1.985              6.507
 Vibration     4          0.593              1.985              6.263
 Vibration     5          0.593              1.984              5.950
 Vibration     6          0.594              1.981              5.319
 Vibration     7          0.595              1.978              4.809
 Vibration     8          0.596              1.974              4.540
 Vibration     9          0.596              1.974              4.504
 Vibration    10          0.598              1.969              4.201
 Vibration    11          0.600              1.963              3.907
 Vibration    12          0.602              1.954              3.591
 Vibration    13          0.609              1.931              3.072
 Vibration    14          0.622              1.890              2.533
 Vibration    15          0.627              1.875              2.398
 Vibration    16          0.633              1.855              2.239
 Vibration    17          0.642              1.825              2.041
 Vibration    18          0.646              1.813              1.971
 Vibration    19          0.653              1.793              1.867
 Vibration    20          0.661              1.767              1.748
 Vibration    21          0.672              1.733              1.614
 Vibration    22          0.688              1.688              1.460
 Vibration    23          0.701              1.649              1.347
 Vibration    24          0.725              1.580              1.178
 Vibration    25          0.728              1.573              1.162
 Vibration    26          0.762              1.482              0.983
 Vibration    27          0.778              1.438              0.910
 Vibration    28          0.788              1.414              0.872
 Vibration    29          0.797              1.389              0.836
 Vibration    30          0.800              1.384              0.828
 Vibration    31          0.816              1.342              0.771
 Vibration    32          0.833              1.302              0.720
 Vibration    33          0.834              1.300              0.717
 Vibration    34          0.892              1.168              0.571
 Vibration    35          0.900              1.151              0.555
 Vibration    36          0.927              1.094              0.503
 Vibration    37          0.940              1.068              0.479
 Vibration    38          0.944              1.060              0.473
 Vibration    39          0.959              1.030              0.448
 Vibration    40          0.966              1.016              0.437

 Optimization completed.
    -- Stationary point found.
 Normal termination of Gaussian 09 at Sat Sep  3 12:40:48 2022.
