 Gaussian 09, Revision C.01,
 Gaussian 09:  EM64L-G09RevC.01 23-Sep-2011

 -------------------------
 #p opt freq b3lyp/cc-pvdz
 -------------------------

 (Enter /opt/gaussian/l101.exe)
 ---------
 Mol11.log
 ---------
 Charge =  0 Multiplicity = 1

 SCF Done:  E(RB3LYP) =  -1711.51715527     A.U. after   16 cycles
 SCF Done:  E(RB3LYP) =  -1711.52882939     A.U. after   13 cycles
 SCF Done:  E(RB3LYP) =  -1711.52980108     A.U. after   13 cycles
 SCF Done:  E(RB3LYP) =  -1711.53001482     A.U. after   13 cycles
 SCF Done:  E(RB3LYP) =  -1711.53008604     A.U. after   13 cycles
 SCF Done:  E(RB3LYP) =  -1711.53026319     A.U. after   12 cycles
 SCF Done:  E(RB3LYP) =  -1711.53032099     A.U. after   12 cycles
 SCF Done:  E(RB3LYP) =  -1711.53036780     A.U. after   11 cycles
 SCF Done:  E(RB3LYP) =  -1711.53038930     A.U. after   11 cycles
 SCF Done:  E(RB3LYP) =  -1711.53039819     A.U. after   11 cycles
 SCF Done:  E(RB3LYP) =  -1711.53040418     A.U. after   10 cycles
 SCF Done:  E(RB3LYP) =  -1711.53040967     A.U. after   11 cycles
 SCF Done:  E(RB3LYP) =  -1711.53041438     A.U. after   11 cycles
 SCF Done:  E(RB3LYP) =  -1711.53041884     A.U. after   11 cycles
 SCF Done:  E(RB3LYP) =  -1711.53042017     A.U. after   10 cycles
 SCF Done:  E(RB3LYP) =  -1711.53042122     A.U. after    8 cycles
 SCF Done:  E(RB3LYP) =  -1711.53042157     A.U. after    8 cycles
 SCF Done:  E(RB3LYP) =  -1711.53042155     A.U. after    7 cycles
 SCF Done:  E(RB3LYP) =  -1711.53042153     A.U. after    7 cycles
 Optimization completed.
    -- Stationary point found.
 Normal termination of Gaussian 09 at Wed Aug 31 22:53:04 2022.

 -------------------------------------------------------------------
 #P Geom=AllCheck Guess=TCheck SCRF=Check GenChk RB3LYP/CC-pVDZ Freq
 -------------------------------------------------------------------

 Structure from the checkpoint file:  /home/scr/lqcapf-6/Gau-62668.chk
 ---------
 Mol11.log
 ---------
 Charge =  0 Multiplicity = 1

                         Standard orientation:
 ---------------------------------------------------------------------
 Center     Atomic      Atomic             Coordinates (Angstroms)
 Number     Number       Type             X           Y           Z
 ---------------------------------------------------------------------
      1          8           0        1.294276   -1.493091   -0.153369
      2          6           0        1.382261   -0.431915   -0.740943
      3          6           0        2.758523    0.113961   -1.174515
      4          7           0        3.822082   -0.810771   -0.879240
      5          7           0        4.443374   -1.461937   -1.911291
      6          7           0        5.369607   -2.224387   -1.443196
      7          6           0        5.385509   -2.097959   -0.067166
      8          6           0        6.207949   -2.703172    0.899422
      9          6           0        5.989705   -2.364123    2.227316
     10          6           0        4.973786   -1.445825    2.596557
     11          6           0        4.149370   -0.841857    1.655643
     12          6           0        4.378194   -1.185314    0.313080
     13          7           0        0.284976    0.362104   -1.062242
     14          6           0        0.458284    1.690792   -1.664369
     15          6           0        0.838731    2.802169   -0.707245
     16          6           0        1.240587    4.104425   -1.160161
     17          6           0        1.526420    4.964596   -0.134232
     18         16           0        1.315702    4.206517    1.413868
     19          6           0        0.834637    2.714226    0.663961
     20          6           0       -1.048491   -0.084601   -0.780512
     21          6           0       -2.020869    0.839771   -0.365349
     22          6           0       -3.334524    0.429258   -0.131830
     23          6           0       -3.707783   -0.911061   -0.298107
     24          6           0       -2.735222   -1.824343   -0.732505
     25          6           0       -1.422044   -1.428364   -0.964617
     26          6           0       -5.104303   -1.426081   -0.081130
     27          8           0       -5.486175   -2.483132   -0.565283
     28          7           0       -5.929945   -0.628689    0.685813
     29          6           0       -7.238208   -1.093421    1.059693
     30          6           0       -8.386005   -0.857511    0.112475
     31          6           0       -8.275393   -0.048750    1.386036
     32          1           0        2.789194    0.263758   -2.262991
     33          1           0        2.954112    1.084790   -0.692231
     34          1           0        6.983813   -3.409637    0.600779
     35          1           0        6.606152   -2.812245    3.009214
     36          1           0        4.832175   -1.212693    3.654256
     37          1           0        3.358425   -0.151630    1.950294
     38          1           0        1.207659    1.631611   -2.468918
     39          1           0       -0.486751    1.941141   -2.168502
     40          1           0        1.314216    4.383918   -2.212459
     41          1           0        1.854732    6.000201   -0.196005
     42          1           0        0.569472    1.855753    1.277626
     43          1           0       -1.757483    1.887241   -0.214443
     44          1           0       -4.072433    1.179106    0.160809
     45          1           0       -3.037915   -2.859783   -0.893515
     46          1           0       -0.684651   -2.159125   -1.287381
     47          1           0       -5.477170    0.012072    1.329208
     48          1           0       -7.255266   -2.030037    1.627853
     49          1           0       -8.153368   -0.354263   -0.827597
     50          1           0       -9.153277   -1.631389    0.047157
     51          1           0       -8.967996   -0.255375    2.204446
     52          1           0       -7.977023    0.998454    1.291807
 ---------------------------------------------------------------------

 SCF Done:  E(RB3LYP) =  -1711.53042153     A.U. after    1 cycles

 The electronic state is 1-A.
 Alpha  occ. eigenvalues --  -88.92809 -19.13201 -19.10666 -14.41206 -14.39315
 Alpha  occ. eigenvalues --  -14.39020 -14.35672 -14.34799 -10.31296 -10.28693
 Alpha  occ. eigenvalues --  -10.26352 -10.25986 -10.25134 -10.23648 -10.23426
 Alpha  occ. eigenvalues --  -10.23208 -10.23091 -10.22531 -10.21595 -10.21146
 Alpha  occ. eigenvalues --  -10.21114 -10.20855 -10.20590 -10.20454 -10.20118
 Alpha  occ. eigenvalues --  -10.20083 -10.20058 -10.20016 -10.19894 -10.19483
 Alpha  occ. eigenvalues --  -10.19430  -7.99013  -5.95337  -5.94956  -5.94648
 Alpha  occ. eigenvalues --   -1.09475  -1.06421  -1.03556  -0.97211  -0.93256
 Alpha  occ. eigenvalues --   -0.92570  -0.90245  -0.86966  -0.86452  -0.84492
 Alpha  occ. eigenvalues --   -0.79532  -0.78421  -0.77314  -0.76338  -0.76038
 Alpha  occ. eigenvalues --   -0.74951  -0.74195  -0.70782  -0.67058  -0.64928
 Alpha  occ. eigenvalues --   -0.63426  -0.62475  -0.61703  -0.61171  -0.59863
 Alpha  occ. eigenvalues --   -0.58957  -0.57636  -0.56930  -0.56379  -0.54590
 Alpha  occ. eigenvalues --   -0.53689  -0.52961  -0.52589  -0.51900  -0.51620
 Alpha  occ. eigenvalues --   -0.50504  -0.48463  -0.47853  -0.46843  -0.46707
 Alpha  occ. eigenvalues --   -0.46186  -0.45663  -0.44737  -0.44626  -0.43833
 Alpha  occ. eigenvalues --   -0.43542  -0.43183  -0.42788  -0.42475  -0.42301
 Alpha  occ. eigenvalues --   -0.41525  -0.40691  -0.40013  -0.39732  -0.39125
 Alpha  occ. eigenvalues --   -0.38001  -0.37676  -0.37286  -0.37147  -0.36723
 Alpha  occ. eigenvalues --   -0.36518  -0.35824  -0.35603  -0.33089  -0.31983
 Alpha  occ. eigenvalues --   -0.31231  -0.30636  -0.30205  -0.28095  -0.27113
 Alpha  occ. eigenvalues --   -0.26717  -0.26646  -0.26305  -0.25980  -0.24983
 Alpha  occ. eigenvalues --   -0.24824  -0.24030  -0.23488
 Alpha virt. eigenvalues --   -0.04983  -0.04232  -0.03842  -0.02283   0.00051
 Alpha virt. eigenvalues --    0.00722   0.01326   0.01997   0.03501   0.04456
 Alpha virt. eigenvalues --    0.04707   0.05136   0.05944   0.06564   0.07125

 Mulliken atomic charges:
              1
     1  O   -0.234127
     2  C    0.131814
     3  C    0.122227
     4  N   -0.228448
     5  N   -0.060666
     6  N   -0.181364
     7  C    0.011328
     8  C    0.044970
     9  C    0.038015
    10  C    0.039734
    11  C    0.031178
    12  C    0.213360
    13  N   -0.280924
    14  C    0.140115
    15  C   -0.025584
    16  C    0.048137
    17  C   -0.099562
    18  S    0.163436
    19  C   -0.151284
    20  C    0.101113
    21  C    0.022082
    22  C    0.013461
    23  C   -0.036887
    24  C    0.069352
    25  C    0.080023
    26  C    0.190667
    27  O   -0.255970
    28  N   -0.150100
    29  C    0.005838
    30  C    0.027345
    31  C   -0.022481
    32  H    0.062401
    33  H    0.060654
    34  H   -0.021701
    35  H   -0.026760
    36  H   -0.025544
    37  H   -0.032688
    38  H    0.039722
    39  H    0.049589
    40  H   -0.025605
    41  H    0.020853
    42  H    0.023233
    43  H   -0.019522
    44  H   -0.043665
    45  H   -0.021149
    46  H   -0.008898
    47  H    0.095032
    48  H    0.009358
    49  H    0.025360
    50  H    0.029095
    51  H    0.025757
    52  H    0.017681
 Sum of Mulliken atomic charges =   0.00000

 Dipole moment (field-independent basis, Debye):
    X=             -1.7640    Y=              7.4958    Z=              2.5485  Tot=              8.1114
 Quadrupole moment (field-independent basis, Debye-Ang):
   XX=           -196.1645   YY=           -185.7833   ZZ=           -180.3842
   XY=             -0.6342   XZ=              0.7962   YZ=            -12.6876

  Exact polarizability: 366.910 -11.940 285.990  -1.519   7.271 255.315
 Approx polarizability: 463.802 -30.784 474.804  -6.188  21.784 476.480

                     1                      2                      3
                     A                      A                      A
 Frequencies --    12.9527                18.4761                22.6511
 Red. masses --     6.4200                 6.2087                 6.3383
 Frc consts  --     0.0006                 0.0012                 0.0019
 IR Inten    --     1.2614                 0.1522                 0.2849

                     4                      5                      6
                     A                      A                      A
 Frequencies --    25.3769                34.4191                37.9899
 Red. masses --     6.6173                 4.6383                 4.9279
 Frc consts  --     0.0025                 0.0032                 0.0042
 IR Inten    --     0.5907                 1.4082                 1.0743

                     7                      8                      9
                     A                      A                      A
 Frequencies --    50.5066                56.9102                66.8365
 Red. masses --     4.3934                 4.7657                 4.6494
 Frc consts  --     0.0066                 0.0091                 0.0122
 IR Inten    --     0.4905                 0.2832                 0.8642

                    10                     11                     12
                     A                      A                      A
 Frequencies --    70.9478                80.0321                89.3998
 Red. masses --     6.4736                 5.8182                 4.8643
 Frc consts  --     0.0192                 0.0220                 0.0229
 IR Inten    --     1.3508                 2.8122                 0.3405

                    13                     14                     15
                     A                      A                      A
 Frequencies --   103.8825               153.8712               172.3011
 Red. masses --     4.3453                 5.1576                 5.3589
 Frc consts  --     0.0276                 0.0719                 0.0937
 IR Inten    --     1.9792                 1.1074                 1.4072

                    16                     17                     18
                     A                      A                      A
 Frequencies --   184.1497               194.0486               221.7123
 Red. masses --     6.4474                 6.5862                 5.9214
 Frc consts  --     0.1288                 0.1461                 0.1715
 IR Inten    --     5.2290                 0.4977                 2.0856

                    19                     20                     21
                     A                      A                      A
 Frequencies --   226.8366               233.7673               251.4158
 Red. masses --     4.7506                 5.8227                 3.3937
 Frc consts  --     0.1440                 0.1875                 0.1264
 IR Inten    --     9.2084                 3.3410                 3.6992

                    22                     23                     24
                     A                      A                      A
 Frequencies --   285.2215               320.6314               340.2391
 Red. masses --     3.9430                 4.4840                 5.6411
 Frc consts  --     0.1890                 0.2716                 0.3848
 IR Inten    --     1.1192                 3.3297                 4.9716

                    25                     26                     27
                     A                      A                      A
 Frequencies --   347.2396               363.4262               384.9716
 Red. masses --     3.9344                 4.8932                 4.4779
 Frc consts  --     0.2795                 0.3808                 0.3910
 IR Inten    --     4.2428                 3.5602                16.3552

                    28                     29                     30
                     A                      A                      A
 Frequencies --   419.8101               435.3334               439.4613
 Red. masses --     3.0705                 3.7223                 2.9104
 Frc consts  --     0.3188                 0.4156                 0.3312
 IR Inten    --     2.2799                 0.1382                 2.0266

                    31                     32                     33
                     A                      A                      A
 Frequencies --   452.5785               458.3744               476.1364
 Red. masses --     2.8017                 4.7525                 3.9535
 Frc consts  --     0.3381                 0.5883                 0.5281
 IR Inten    --     5.0505                 0.3240                 1.4711

                    34                     35                     36
                     A                      A                      A
 Frequencies --   496.6196               505.7710               534.2528
 Red. masses --     2.9883                 1.4067                 3.5520
 Frc consts  --     0.4342                 0.2120                 0.5973
 IR Inten    --    21.9427                59.8215                 4.0681

                    37                     38                     39
                     A                      A                      A
 Frequencies --   539.8676               571.1732               583.4234
 Red. masses --     5.3385                 5.4807                 4.2100
 Frc consts  --     0.9167                 1.0535                 0.8443
 IR Inten    --     0.5748                 0.2362                 2.7847

                    40                     41                     42
                     A                      A                      A
 Frequencies --   586.3861               603.0493               609.4852
 Red. masses --     4.3211                 3.4548                 4.8881
 Frc consts  --     0.8754                 0.7402                 1.0698
 IR Inten    --     2.6573                 2.0494                19.0356

                    43                     44                     45
                     A                      A                      A
 Frequencies --   643.6376               654.9962               669.7630
 Red. masses --     6.6181                 5.8414                 7.3481
 Frc consts  --     1.6153                 1.4765                 1.9421
 IR Inten    --     0.3793                 3.4217                 4.8577

                    46                     47                     48
                     A                      A                      A
 Frequencies --   682.0722               691.3754               698.8701
 Red. masses --     5.9273                 5.1363                 1.2727
 Frc consts  --     1.6247                 1.4465                 0.3662
 IR Inten    --     1.4316                13.9439                 1.5032

                    49                     50                     51
                     A                      A                      A
 Frequencies --   713.0387               758.9558               759.9533
 Red. masses --     3.5690                 1.5847                 1.4329
 Frc consts  --     1.0691                 0.5378                 0.4876
 IR Inten    --    24.4539                11.9183                36.4263

                    52                     53                     54
                     A                      A                      A
 Frequencies --   768.3067               782.8046               785.8235
 Red. masses --     2.0600                 1.4722                 2.5905
 Frc consts  --     0.7165                 0.5315                 0.9425
 IR Inten    --    15.6676                28.1963                17.1900

                    55                     56                     57
                     A                      A                      A
 Frequencies --   786.6915               793.2120               819.0813
 Red. masses --     3.4113                 4.6137                 1.3774
 Frc consts  --     1.2439                 1.7103                 0.5445
 IR Inten    --     2.6870                 5.5981                 1.7304

                    58                     59                     60
                     A                      A                      A
 Frequencies --   831.9409               833.7674               840.7871
 Red. masses --     4.5921                 4.4414                 2.4929
 Frc consts  --     1.8726                 1.8191                 1.0383
 IR Inten    --    44.4365                12.8748                 2.7841

                    61                     62                     63
                     A                      A                      A
 Frequencies --   845.5155               863.9415               865.0745
 Red. masses --     1.4363                 2.2130                 2.0499
 Frc consts  --     0.6050                 0.9732                 0.9038
 IR Inten    --     1.0501                 2.4715                 2.3996

                    64                     65                     66
                     A                      A                      A
 Frequencies --   867.9742               877.3280               881.7957
 Red. masses --     3.5169                 2.9429                 2.5136
 Frc consts  --     1.5611                 1.3346                 1.1516
 IR Inten    --     5.4921                24.4895                25.3686

                    67                     68                     69
                     A                      A                      A
 Frequencies --   895.9591               922.1839               951.9726
 Red. masses --     1.3491                 4.8018                 3.2906
 Frc consts  --     0.6381                 2.4060                 1.7570
 IR Inten    --     0.5378                 3.4583                 5.1300

                    70                     71                     72
                     A                      A                      A
 Frequencies --   958.4671               961.4877               971.2930
 Red. masses --     1.3763                 3.4806                 1.4068
 Frc consts  --     0.7449                 1.8958                 0.7819
 IR Inten    --     2.4671                84.7436                 2.7866

                    73                     74                     75
                     A                      A                      A
 Frequencies --   977.4996               997.2717              1002.5010
 Red. masses --     2.4553                 1.2916                 2.2046
 Frc consts  --     1.3822                 0.7568                 1.3054
 IR Inten    --    17.7024                 0.0649                43.3780

                    76                     77                     78
                     A                      A                      A
 Frequencies --  1004.7879              1011.3180              1024.6904
 Red. masses --     1.4677                 2.4959                 2.0089
 Frc consts  --     0.8731                 1.5040                 1.2428
 IR Inten    --     0.9333                 1.1187                 9.5406

                    79                     80                     81
                     A                      A                      A
 Frequencies --  1029.8313              1045.5647              1059.9007
 Red. masses --     2.5980                 1.3784                 1.3739
 Frc consts  --     1.6234                 0.8878                 0.9094
 IR Inten    --     2.8911                 3.5616                 1.0689

                    82                     83                     84
                     A                      A                      A
 Frequencies --  1089.4374              1095.3553              1102.3409
 Red. masses --     1.1081                 3.2033                 1.2664
 Frc consts  --     0.7749                 2.2645                 0.9067
 IR Inten    --     7.1914                65.0156                 2.4939

                    85                     86                     87
                     A                      A                      A
 Frequencies --  1119.7693              1128.0101              1134.6093
 Red. masses --     2.9161                 2.1418                 2.4069
 Frc consts  --     2.1543                 1.6057                 1.8256
 IR Inten    --    41.5793                 7.2269                 1.1609

                    88                     89                     90
                     A                      A                      A
 Frequencies --  1141.5039              1146.0965              1163.5554
 Red. masses --     1.4236                 1.4288                 1.7140
 Frc consts  --     1.0929                 1.1057                 1.3672
 IR Inten    --     1.6338                 1.8935                13.1792

                    91                     92                     93
                     A                      A                      A
 Frequencies --  1177.5066              1178.2696              1191.4313
 Red. masses --     1.5651                 1.3601                 1.7374
 Frc consts  --     1.2786                 1.1126                 1.4531
 IR Inten    --     7.2387                 0.8354                13.4740

                    94                     95                     96
                     A                      A                      A
 Frequencies --  1204.4091              1214.7750              1220.2884
 Red. masses --     1.4289                 1.4975                 1.6337
 Frc consts  --     1.2212                 1.3020                 1.4333
 IR Inten    --   121.6140                14.0848               200.8822

                    97                     98                     99
                     A                      A                      A
 Frequencies --  1245.1018              1258.8497              1269.6969
 Red. masses --     1.6518                 3.2843                 2.6456
 Frc consts  --     1.5088                 3.0665                 2.5129
 IR Inten    --    18.9997                70.1123                10.7538

                   100                    101                    102
                     A                      A                      A
 Frequencies --  1283.8563              1295.3527              1319.1750
 Red. masses --     2.0711                 1.7261                 1.6537
 Frc consts  --     2.0113                 1.7065                 1.6956
 IR Inten    --   199.5579                 3.3345                63.9452

                   103                    104                    105
                     A                      A                      A
 Frequencies --  1321.8417              1339.9773              1350.0251
 Red. masses --     1.3739                 1.6614                 1.7565
 Frc consts  --     1.4144                 1.7576                 1.8861
 IR Inten    --     7.5900                75.1168                72.5352

                   106                    107                    108
                     A                      A                      A
 Frequencies --  1358.9442              1376.4698              1383.6080
 Red. masses --     4.8665                 4.1683                 1.5108
 Frc consts  --     5.2950                 4.6531                 1.7041
 IR Inten    --     4.8474                21.6500                26.5580

                   109                    110                    111
                     A                      A                      A
 Frequencies --  1405.0571              1420.2532              1429.1006
 Red. masses --     2.0627                 2.4535                 3.0345
 Frc consts  --     2.3993                 2.9159                 3.6514
 IR Inten    --   217.6152                22.6885                 1.5258

                   112                    113                    114
                     A                      A                      A
 Frequencies --  1429.4783              1435.4374              1441.0669
 Red. masses --     1.1010                 1.9530                 2.9231
 Frc consts  --     1.3255                 2.3709                 3.5765
 IR Inten    --     4.4104                 4.5636                33.5492

                   115                    116                    117
                     A                      A                      A
 Frequencies --  1447.9873              1469.4949              1473.8148
 Red. masses --     2.7532                 2.8130                 1.4158
 Frc consts  --     3.4011                 3.5790                 1.8119
 IR Inten    --    49.4918                 7.7754                25.8736

                   118                    119                    120
                     A                      A                      A
 Frequencies --  1485.6393              1489.8514              1502.4118
 Red. masses --     1.6940                 3.5732                 1.9758
 Frc consts  --     2.2029                 4.6730                 2.6276
 IR Inten    --    78.9375                23.6836               370.4225

                   121                    122                    123
                     A                      A                      A
 Frequencies --  1529.9259              1542.8897              1593.4325
 Red. masses --     3.8005                 2.6821                 5.8351
 Frc consts  --     5.2413                 3.7618                 8.7291
 IR Inten    --    18.5634                17.9178                 0.3903

                   124                    125                    126
                     A                      A                      A
 Frequencies --  1616.9517              1635.7733              1657.9138
 Red. masses --     7.2838                 7.3633                 6.1628
 Frc consts  --    11.2203                11.6083                 9.9806
 IR Inten    --     5.8797                 2.6342                98.4275

                   127                    128                    129
                     A                      A                      A
 Frequencies --  1669.2745              1759.8744              1776.9778
 Red. masses --     7.4685                10.9552                12.1124
 Frc consts  --    12.2614                19.9910                22.5344
 IR Inten    --    12.6749               191.5722               236.0749

                   130                    131                    132
                     A                      A                      A
 Frequencies --  3049.5593              3055.4392              3087.2678
 Red. masses --     1.0639                 1.0627                 1.1009
 Frc consts  --     5.8293                 5.8456                 6.1825
 IR Inten    --    20.6884                19.8462                 9.8478

                   133                    134                    135
                     A                      A                      A
 Frequencies --  3118.2220              3121.8048              3125.7596
 Red. masses --     1.1008                 1.0812                 1.0590
 Frc consts  --     6.3065                 6.2081                 6.0962
 IR Inten    --     3.9818                16.9827                14.6319

                   136                    137                    138
                     A                      A                      A
 Frequencies --  3138.6623              3179.5456              3183.0928
 Red. masses --     1.0590                 1.0858                 1.0877
 Frc consts  --     6.1467                 6.4677                 6.4933
 IR Inten    --     6.4227                 1.8692                11.4798

                   139                    140                    141
                     A                      A                      A
 Frequencies --  3193.6544              3202.4586              3204.2125
 Red. masses --     1.0900                 1.0910                 1.0941
 Frc consts  --     6.5501                 6.5925                 6.6181
 IR Inten    --    11.9971                 2.7053                 3.5825

                   142                    143                    144
                     A                      A                      A
 Frequencies --  3208.4311              3211.9747              3212.3998
 Red. masses --     1.0947                 1.0902                 1.0971
 Frc consts  --     6.6395                 6.6265                 6.6706
 IR Inten    --    16.1514                 0.2840                 6.4841

                   145                    146                    147
                     A                      A                      A
 Frequencies --  3215.4013              3234.8975              3247.5435
 Red. masses --     1.1195                 1.1179                 1.0942
 Frc consts  --     6.8192                 6.8925                 6.7992
 IR Inten    --     4.7462                12.8161                 1.3539

                   148                    149                    150
                     A                      A                      A
 Frequencies --  3247.8725              3252.0086              3584.7397
 Red. masses --     1.0936                 1.0989                 1.0768
 Frc consts  --     6.7966                 6.8474                 8.1530
 IR Inten    --     0.6791                 0.9252                13.3284

 - Thermochemistry -
 -------------------
 Temperature   298.150 Kelvin.  Pressure   1.00000 Atm.
 Atom     1 has atomic number  8 and mass  15.99491

 Molecular mass:   431.14160 amu.
 Principal axes and moments of inertia in atomic units:
                           1         2         3
     Eigenvalues --  9348.15542********************
           X            1.00000   0.00051  -0.00058
           Y           -0.00052   0.99979  -0.02065
           Z            0.00057   0.02065   0.99979
 This molecule is an asymmetric top.
 Rotational symmetry number  1.
 Warning -- assumption of classical behavior for rotation
           may cause significant error
 Rotational temperatures (Kelvin)      0.00927     0.00292     0.00248
 Rotational constants (GHZ):           0.19306     0.06076     0.05169
 Zero-point vibrational energy    1064623.7 (Joules/Mol)
                                  254.45117 (Kcal/Mol)
 Warning -- explicit consideration of  42 degrees of freedom as
           vibrations may cause significant error
 Vibrational temperatures:     18.64    26.58    32.59    36.51    49.52
          (Kelvin)             54.66    72.67    81.88    96.16   102.08
                              115.15   128.63   149.46   221.39   247.90
                              264.95   279.19   318.99   326.37   336.34
                              361.73   410.37   461.32   489.53   499.60
                              522.89   553.89   604.01   626.35   632.29
                              651.16   659.50   685.05   714.52   727.69
                              768.67   776.75   821.79   839.42   843.68
                              867.65   876.91   926.05   942.39   963.64
                              981.35   994.73  1005.52  1025.90  1091.97
                             1093.40  1105.42  1126.28  1130.62  1131.87
                             1141.25  1178.47  1196.98  1199.60  1209.70
                             1216.51  1243.02  1244.65  1248.82  1262.28
                             1268.71  1289.08  1326.82  1369.67  1379.02
                             1383.36  1397.47  1406.40  1434.85  1442.37
                             1445.66  1455.06  1474.30  1481.70  1504.33
                             1524.96  1567.46  1575.97  1586.02  1611.10
                             1622.95  1632.45  1642.37  1648.98  1674.09
                             1694.17  1695.26  1714.20  1732.87  1747.79
                             1755.72  1791.42  1811.20  1826.81  1847.18
                             1863.72  1898.00  1901.83  1927.93  1942.38
                             1955.22  1980.43  1990.70  2021.56  2043.42
                             2056.15  2056.70  2065.27  2073.37  2083.33
                             2114.27  2120.49  2137.50  2143.56  2161.63
                             2201.22  2219.87  2292.59  2326.43  2353.51
                             2385.37  2401.71  2532.06  2556.67  4387.63
                             4396.09  4441.88  4486.42  4491.58  4497.27
                             4515.83  4574.65  4579.75  4594.95  4607.62
                             4610.14  4616.21  4621.31  4621.92  4626.24
                             4654.29  4672.48  4672.96  4678.91  5157.63

 Zero-point correction=                           0.405494 (Hartree/Particle)
 Thermal correction to Energy=                    0.432323
 Thermal correction to Enthalpy=                  0.433267
 Thermal correction to Gibbs Free Energy=         0.342841
 Sum of electronic and zero-point Energies=          -1711.124928
 Sum of electronic and thermal Energies=             -1711.098098
 Sum of electronic and thermal Enthalpies=           -1711.097154
 Sum of electronic and thermal Free Energies=        -1711.187580

                     E (Thermal)             CV                S
                      KCal/Mol        Cal/Mol-Kelvin    Cal/Mol-Kelvin
 Total                  271.287            103.400            190.317
 Electronic               0.000              0.000              0.000
 Translational            0.889              2.981             44.074
 Rotational               0.889              2.981             37.514
 Vibrational            269.509             97.439            108.729
 Vibration     1          0.593              1.987              7.497
 Vibration     2          0.593              1.986              6.792
 Vibration     3          0.593              1.985              6.387
 Vibration     4          0.593              1.985              6.162
 Vibration     5          0.594              1.983              5.557
 Vibration     6          0.594              1.982              5.361
 Vibration     7          0.595              1.977              4.797
 Vibration     8          0.596              1.975              4.562
 Vibration     9          0.598              1.970              4.244
 Vibration    10          0.598              1.968              4.127
 Vibration    11          0.600              1.963              3.890
 Vibration    12          0.602              1.957              3.673
 Vibration    13          0.605              1.946              3.380
 Vibration    14          0.619              1.898              2.624
 Vibration    15          0.626              1.877              2.410
 Vibration    16          0.631              1.861              2.286
 Vibration    17          0.635              1.848              2.189
 Vibration    18          0.648              1.808              1.945
 Vibration    19          0.650              1.800              1.904
 Vibration    20          0.654              1.789              1.850
 Vibration    21          0.663              1.760              1.721
 Vibration    22          0.683              1.701              1.502
 Vibration    23          0.706              1.634              1.307
 Vibration    24          0.720              1.595              1.211
 Vibration    25          0.725              1.581              1.179
 Vibration    26          0.737              1.548              1.107
 Vibration    27          0.754              1.502              1.020
 Vibration    28          0.782              1.427              0.893
 Vibration    29          0.796              1.393              0.841
 Vibration    30          0.799              1.384              0.828
 Vibration    31          0.811              1.355              0.788
 Vibration    32          0.816              1.342              0.771
 Vibration    33          0.833              1.303              0.721
 Vibration    34          0.852              1.258              0.667
 Vibration    35          0.861              1.237              0.644
 Vibration    36          0.889              1.174              0.578
 Vibration    37          0.895              1.162              0.566
 Vibration    38          0.927              1.094              0.502
 Vibration    39          0.940              1.067              0.479
 Vibration    40          0.943              1.061              0.474
 Vibration    41          0.961              1.025              0.444
 Vibration    42          0.968              1.012              0.434

 Optimization completed.
    -- Stationary point found.
 Normal termination of Gaussian 09 at Thu Sep  1 01:06:19 2022.
