 Gaussian 09, Revision C.01,
 Gaussian 09:  EM64L-G09RevC.01 23-Sep-2011

 -------------------------
 #p opt freq b3lyp/cc-pvdz
 -------------------------

 (Enter /opt/gaussian/l101.exe)
 ---------
 Mol26.log
 ---------
 Charge =  0 Multiplicity = 1

 SCF Done:  E(RB3LYP) =  -1352.63855874     A.U. after   15 cycles
 SCF Done:  E(RB3LYP) =  -1352.64915100     A.U. after   13 cycles
 SCF Done:  E(RB3LYP) =  -1352.64963599     A.U. after   12 cycles
 SCF Done:  E(RB3LYP) =  -1352.64971833     A.U. after   13 cycles
 SCF Done:  E(RB3LYP) =  -1352.64991755     A.U. after   13 cycles
 SCF Done:  E(RB3LYP) =  -1352.65005625     A.U. after   13 cycles
 SCF Done:  E(RB3LYP) =  -1352.65012904     A.U. after   13 cycles
 SCF Done:  E(RB3LYP) =  -1352.65022449     A.U. after   12 cycles
 SCF Done:  E(RB3LYP) =  -1352.65024367     A.U. after   11 cycles
 SCF Done:  E(RB3LYP) =  -1352.65025004     A.U. after   10 cycles
 SCF Done:  E(RB3LYP) =  -1352.65027636     A.U. after   10 cycles
 SCF Done:  E(RB3LYP) =  -1352.65027935     A.U. after   10 cycles
 SCF Done:  E(RB3LYP) =  -1352.65028158     A.U. after   10 cycles
 SCF Done:  E(RB3LYP) =  -1352.65028719     A.U. after   11 cycles
 SCF Done:  E(RB3LYP) =  -1352.65029168     A.U. after   11 cycles
 SCF Done:  E(RB3LYP) =  -1352.65029237     A.U. after   10 cycles
 SCF Done:  E(RB3LYP) =  -1352.65029298     A.U. after   10 cycles
 SCF Done:  E(RB3LYP) =  -1352.65029311     A.U. after    7 cycles
 SCF Done:  E(RB3LYP) =  -1352.65029318     A.U. after    7 cycles
 Optimization completed.
    -- Stationary point found.
 Normal termination of Gaussian 09 at Mon Sep  5 10:55:55 2022.

 -------------------------------------------------------------------
 #P Geom=AllCheck Guess=TCheck SCRF=Check GenChk RB3LYP/CC-pVDZ Freq
 -------------------------------------------------------------------

 Structure from the checkpoint file:  /home/scr/lqcapf-6/Gau-233206.chk
 ---------
 Mol26.log
 ---------
 Charge =  0 Multiplicity = 1

                         Standard orientation:
 ---------------------------------------------------------------------
 Center     Atomic      Atomic             Coordinates (Angstroms)
 Number     Number       Type             X           Y           Z
 ---------------------------------------------------------------------
      1          8           0        1.021765   -1.208210   -0.504686
      2          6           0        1.192524   -0.019173   -0.700483
      3          6           0        2.611156    0.544317   -0.939963
      4          7           0        3.603214   -0.501015   -0.958590
      5          7           0        4.174881   -0.856082   -2.149871
      6          7           0        5.032022   -1.797685   -1.953170
      7          6           0        5.047247   -2.098168   -0.604700
      8          6           0        5.808118   -3.034119    0.117816
      9          6           0        5.608403   -3.098676    1.489655
     10          6           0        4.670907   -2.255160    2.138710
     11          6           0        3.908272   -1.327731    1.440173
     12          6           0        4.116472   -1.265106    0.052574
     13          7           0        0.149670    0.898157   -0.724886
     14          6           0        0.346857    2.343933   -0.877829
     15          6           0        0.116624    3.161537    0.412016
     16          6           0        0.620573    4.611943    0.215698
     17          6           0        2.068981    4.573125    0.778468
     18          8           0        2.292159    3.239173    1.256637
     19          6           0        1.008856    2.703179    1.569421
     20          6           0       -1.196808    0.432339   -0.533998
     21          6           0       -2.194328    0.786779   -1.452202
     22          6           0       -3.511906    0.370557   -1.264098
     23          6           0       -3.873770   -0.423506   -0.161705
     24          6           0       -2.859256   -0.784315    0.744374
     25          6           0       -1.542609   -0.364681    0.566122
     26          6           0       -5.274712   -0.869926    0.034800
     27          6           0       -6.370030   -0.040710   -0.258243
     28          6           0       -7.663921   -0.516945   -0.054110
     29          6           0       -7.829994   -1.811803    0.444396
     30          7           0       -6.806141   -2.628390    0.728143
     31          6           0       -5.571603   -2.158819    0.520684
     32          1           0        2.671716    1.023475   -1.927399
     33          1           0        2.867797    1.300920   -0.180176
     34          1           0        6.524743   -3.677450   -0.394927
     35          1           0        6.178938   -3.812608    2.087193
     36          1           0        4.542473   -2.342168    3.219970
     37          1           0        3.179657   -0.692971    1.945326
     38          1           0        1.362192    2.525819   -1.245871
     39          1           0       -0.330263    2.723562   -1.658854
     40          1           0       -0.949048    3.125815    0.683881
     41          1           0        0.590544    4.921629   -0.840839
     42          1           0       -0.000827    5.322061    0.780515
     43          1           0        2.841831    4.787215    0.025108
     44          1           0        2.190604    5.293589    1.608478
     45          1           0        0.633809    3.104488    2.532662
     46          1           0        1.107320    1.612807    1.666493
     47          1           0       -1.939008    1.372932   -2.336895
     48          1           0       -4.263649    0.637522   -2.009714
     49          1           0       -3.107621   -1.384436    1.621841
     50          1           0       -0.776339   -0.662758    1.280131
     51          1           0       -6.207067    0.976640   -0.621396
     52          1           0       -8.532999    0.108974   -0.266967
     53          1           0       -8.832536   -2.213755    0.624914
     54          1           0       -4.755498   -2.857134    0.734082
 ---------------------------------------------------------------------

 SCF Done:  E(RB3LYP) =  -1352.65029318     A.U. after    1 cycles

 The electronic state is 1-A.
 Alpha  occ. eigenvalues --  -19.16128 -19.12273 -14.40688 -14.38521 -14.38259
 Alpha  occ. eigenvalues --  -14.34312 -14.33141 -10.30511 -10.25208 -10.25109
 Alpha  occ. eigenvalues --  -10.25047 -10.24979 -10.24488 -10.22791 -10.22768
 Alpha  occ. eigenvalues --  -10.22747 -10.21811 -10.21534 -10.21521 -10.21475
 Alpha  occ. eigenvalues --  -10.21319 -10.20958 -10.20824 -10.20678 -10.20635
 Alpha  occ. eigenvalues --  -10.20600 -10.20534 -10.20082 -10.19713 -10.19514
 Alpha  occ. eigenvalues --  -10.19115  -1.08972  -1.05920  -1.05520  -0.96227
 Alpha  occ. eigenvalues --   -0.94719  -0.91997  -0.87426  -0.86044  -0.82602
 Alpha  occ. eigenvalues --   -0.81682  -0.78755  -0.77404  -0.76598  -0.76493
 Alpha  occ. eigenvalues --   -0.76067  -0.74784  -0.73365  -0.71228  -0.66030
 Alpha  occ. eigenvalues --   -0.64521  -0.64496  -0.62334  -0.61964  -0.61794
 Alpha  occ. eigenvalues --   -0.61609  -0.60045  -0.59007  -0.56808  -0.53871
 Alpha  occ. eigenvalues --   -0.53367  -0.52435  -0.52067  -0.52010  -0.51375
 Alpha  occ. eigenvalues --   -0.51179  -0.49629  -0.49418  -0.47664  -0.46758
 Alpha  occ. eigenvalues --   -0.46425  -0.46209  -0.45765  -0.45168  -0.44764
 Alpha  occ. eigenvalues --   -0.44188  -0.43924  -0.43469  -0.43231  -0.42642
 Alpha  occ. eigenvalues --   -0.41592  -0.41162  -0.40898  -0.40539  -0.39669
 Alpha  occ. eigenvalues --   -0.38957  -0.37907  -0.37579  -0.37238  -0.36668
 Alpha  occ. eigenvalues --   -0.36614  -0.36319  -0.36213  -0.35753  -0.35189
 Alpha  occ. eigenvalues --   -0.33977  -0.32597  -0.31009  -0.30654  -0.28874
 Alpha  occ. eigenvalues --   -0.27758  -0.27543  -0.26897  -0.26407  -0.26148
 Alpha  occ. eigenvalues --   -0.26007  -0.24549  -0.23449  -0.23008
 Alpha virt. eigenvalues --   -0.05185  -0.03798  -0.03231  -0.02421  -0.00423
 Alpha virt. eigenvalues --    0.00996   0.01688   0.02547   0.03986   0.04494
 Alpha virt. eigenvalues --    0.05387   0.05459   0.06283   0.07254   0.07757

 Mulliken atomic charges:
              1
     1  O   -0.237573
     2  C    0.127053
     3  C    0.099865
     4  N   -0.224788
     5  N   -0.061208
     6  N   -0.183318
     7  C    0.010832
     8  C    0.044030
     9  C    0.038183
    10  C    0.038606
    11  C    0.033344
    12  C    0.213198
    13  N   -0.280210
    14  C    0.136992
    15  C   -0.118161
    16  C    0.001555
    17  C    0.171948
    18  O   -0.326833
    19  C    0.194530
    20  C    0.082804
    21  C    0.047951
    22  C    0.020848
    23  C    0.036165
    24  C    0.019570
    25  C    0.087513
    26  C   -0.045162
    27  C    0.074176
    28  C   -0.008130
    29  C    0.105838
    30  N   -0.172435
    31  C    0.099575
    32  H    0.060165
    33  H    0.063381
    34  H   -0.023132
    35  H   -0.028250
    36  H   -0.027802
    37  H   -0.032632
    38  H    0.024412
    39  H    0.025552
    40  H   -0.008264
    41  H    0.011836
    42  H    0.017560
    43  H    0.019622
    44  H    0.013867
    45  H    0.012018
    46  H    0.025030
    47  H   -0.028159
    48  H   -0.034799
    49  H   -0.030271
    50  H   -0.025940
    51  H   -0.029850
    52  H   -0.023422
    53  H   -0.002758
    54  H   -0.004926
 Sum of Mulliken atomic charges =   0.00000

 Dipole moment (field-independent basis, Debye):
    X=             -3.3673    Y=              7.4285    Z=              2.1350  Tot=              8.4309
 Quadrupole moment (field-independent basis, Debye-Ang):
   XX=           -189.4366   YY=           -172.5701   ZZ=           -181.7820
   XY=             -8.8452   XZ=             18.6704   YZ=            -10.3380

  Exact polarizability: 402.009 -13.178 272.250  -1.714 -40.228 234.109
 Approx polarizability: 528.629 -39.334 437.056  -7.564 -90.599 431.168

                     1                      2                      3
                     A                      A                      A
 Frequencies --    13.3165                20.2744                22.1520
 Red. masses --     5.6824                 6.3733                 6.0844
 Frc consts  --     0.0006                 0.0015                 0.0018
 IR Inten    --     2.0158                 0.3178                 0.5300

                     4                      5                      6
                     A                      A                      A
 Frequencies --    30.0257                31.1329                45.5838
 Red. masses --     4.6650                 4.9535                 4.0874
 Frc consts  --     0.0025                 0.0028                 0.0050
 IR Inten    --     0.9386                 0.2345                 0.8840

                     7                      8                      9
                     A                      A                      A
 Frequencies --    53.9320                68.0982                72.2157
 Red. masses --     3.3058                 3.9507                 3.6233
 Frc consts  --     0.0057                 0.0108                 0.0111
 IR Inten    --     0.1613                 0.3688                 0.8371

                    10                     11                     12
                     A                      A                      A
 Frequencies --    75.7207                81.3929                95.0779
 Red. masses --     5.5378                 5.4229                 4.8755
 Frc consts  --     0.0187                 0.0212                 0.0260
 IR Inten    --     0.7669                 1.2937                 0.9981

                    13                     14                     15
                     A                      A                      A
 Frequencies --   133.2857               166.1848               176.3336
 Red. masses --     5.1382                 5.9227                 5.8896
 Frc consts  --     0.0538                 0.0964                 0.1079
 IR Inten    --     3.5183                 3.7073                 0.1492

                    16                     17                     18
                     A                      A                      A
 Frequencies --   199.7900               221.0133               232.6606
 Red. masses --     5.0283                 5.0988                 5.8815
 Frc consts  --     0.1183                 0.1467                 0.1876
 IR Inten    --     2.7440                 3.0786                 0.2668

                    19                     20                     21
                     A                      A                      A
 Frequencies --   258.8954               265.1890               291.1299
 Red. masses --     2.9872                 3.1600                 3.1345
 Frc consts  --     0.1180                 0.1309                 0.1565
 IR Inten    --     7.9752                 0.4448                 0.3216

                    22                     23                     24
                     A                      A                      A
 Frequencies --   317.5148               338.7636               360.4834
 Red. masses --     3.4641                 5.2561                 6.7310
 Frc consts  --     0.2058                 0.3554                 0.5153
 IR Inten    --     3.0248                 0.2344                11.5426

                    25                     26                     27
                     A                      A                      A
 Frequencies --   392.9680               403.2407               413.8774
 Red. masses --     3.5684                 2.8918                 3.1379
 Frc consts  --     0.3247                 0.2770                 0.3167
 IR Inten    --     3.1853                 3.4226                 0.9486

                    28                     29                     30
                     A                      A                      A
 Frequencies --   422.4286               439.4007               441.2356
 Red. masses --     3.1323                 2.9870                 3.9796
 Frc consts  --     0.3293                 0.3398                 0.4565
 IR Inten    --     1.8482                 3.3332                 2.0301

                    31                     32                     33
                     A                      A                      A
 Frequencies --   458.5261               481.8469               518.1809
 Red. masses --     2.9669                 4.2418                 3.8279
 Frc consts  --     0.3675                 0.5803                 0.6056
 IR Inten    --     1.5561                 1.2873                 2.4383

                    34                     35                     36
                     A                      A                      A
 Frequencies --   540.0409               572.2559               583.5920
 Red. masses --     5.5244                 3.2062                 3.7740
 Frc consts  --     0.9493                 0.6186                 0.7573
 IR Inten    --     0.5730                 7.3924                 1.6106

                    37                     38                     39
                     A                      A                      A
 Frequencies --   585.3066               587.7877               623.6499
 Red. masses --     4.1109                 4.8084                 6.3125
 Frc consts  --     0.8298                 0.9788                 1.4466
 IR Inten    --     2.4625                 2.3310                18.6155

                    40                     41                     42
                     A                      A                      A
 Frequencies --   636.9344               651.4463               666.1962
 Red. masses --     5.6608                 6.8295                 5.9990
 Frc consts  --     1.3531                 1.7076                 1.5687
 IR Inten    --     5.0398                 0.6073                 7.7238

                    43                     44                     45
                     A                      A                      A
 Frequencies --   675.9255               695.6322               719.0935
 Red. masses --     6.2574                 3.5699                 5.5176
 Frc consts  --     1.6844                 1.0178                 1.6810
 IR Inten    --     5.2388                 0.5653                 3.4014

                    46                     47                     48
                     A                      A                      A
 Frequencies --   731.2123               743.0276               757.6600
 Red. masses --     1.9618                 4.9708                 3.2624
 Frc consts  --     0.6180                 1.6169                 1.1034
 IR Inten    --    18.4584                 7.0245                10.9035

                    49                     50                     51
                     A                      A                      A
 Frequencies --   759.2531               786.2053               786.7050
 Red. masses --     1.4526                 3.5548                 2.7527
 Frc consts  --     0.4934                 1.2946                 1.0038
 IR Inten    --    39.3948                 1.8872                 2.2190

                    52                     53                     54
                     A                      A                      A
 Frequencies --   791.5757               803.0060               823.4486
 Red. masses --     2.0933                 3.8371                 1.7154
 Frc consts  --     0.7728                 1.4578                 0.6853
 IR Inten    --     2.3982                 9.3911                31.0166

                    55                     56                     57
                     A                      A                      A
 Frequencies --   832.1885               841.9401               845.6035
 Red. masses --     5.2695                 1.2641                 2.3016
 Frc consts  --     2.1501                 0.5280                 0.9697
 IR Inten    --    41.1748                 4.1831                 7.8264

                    58                     59                     60
                     A                      A                      A
 Frequencies --   860.2309               864.1101               887.0886
 Red. masses --     1.9425                 1.5808                 3.3604
 Frc consts  --     0.8469                 0.6954                 1.5580
 IR Inten    --     8.3720                 0.4334                 2.8438

                    61                     62                     63
                     A                      A                      A
 Frequencies --   918.8092               920.5730               930.8659
 Red. masses --     2.2888                 4.2367                 3.7523
 Frc consts  --     1.1385                 2.1154                 1.9157
 IR Inten    --     7.9824                 9.2165                20.6681

                    64                     65                     66
                     A                      A                      A
 Frequencies --   945.2798               948.0505               957.5894
 Red. masses --     2.3605                 1.3474                 1.3649
 Frc consts  --     1.2427                 0.7135                 0.7374
 IR Inten    --    14.3963                 1.0948                 0.8632

                    67                     68                     69
                     A                      A                      A
 Frequencies --   966.2322               967.3724               977.2536
 Red. masses --     2.6900                 1.5005                 1.4480
 Frc consts  --     1.4797                 0.8273                 0.8148
 IR Inten    --    44.8539                 5.4839                 0.8336

                    70                     71                     72
                     A                      A                      A
 Frequencies --   981.3293               990.2981               996.3854
 Red. masses --     1.3652                 1.8656                 1.2901
 Frc consts  --     0.7746                 1.0779                 0.7546
 IR Inten    --     0.4041                10.2526                 0.0608

                    73                     74                     75
                     A                      A                      A
 Frequencies --  1004.1554              1010.8509              1017.1685
 Red. masses --     1.3874                 2.2289                 5.4489
 Frc consts  --     0.8242                 1.3419                 3.3216
 IR Inten    --     0.6832                45.0648                 9.9789

                    76                     77                     78
                     A                      A                      A
 Frequencies --  1024.1730              1032.6732              1045.9808
 Red. masses --     1.9934                 3.0949                 3.9319
 Frc consts  --     1.2320                 1.9446                 2.5346
 IR Inten    --    11.2858                 5.7027                 0.7189

                    79                     80                     81
                     A                      A                      A
 Frequencies --  1072.7852              1079.0238              1096.9897
 Red. masses --     1.9342                 1.9519                 3.1996
 Frc consts  --     1.3115                 1.3390                 2.2686
 IR Inten    --    14.4963                 0.6549                49.0061

                    82                     83                     84
                     A                      A                      A
 Frequencies --  1102.1728              1127.2189              1129.4486
 Red. masses --     3.3691                 2.1751                 1.9466
 Frc consts  --     2.4114                 1.6283                 1.4631
 IR Inten    --    96.3821                 2.2263                34.1227

                    85                     86                     87
                     A                      A                      A
 Frequencies --  1137.1044              1141.0272              1143.6888
 Red. masses --     1.3496                 1.9025                 1.9959
 Frc consts  --     1.0281                 1.4594                 1.5381
 IR Inten    --     5.1492                52.6603                 4.2843

                    88                     89                     90
                     A                      A                      A
 Frequencies --  1146.0794              1176.4961              1199.1440
 Red. masses --     1.4566                 1.5892                 1.1502
 Frc consts  --     1.1272                 1.2960                 0.9745
 IR Inten    --     6.7683                10.6721                24.2269

                    91                     92                     93
                     A                      A                      A
 Frequencies --  1201.0145              1210.4358              1219.9468
 Red. masses --     1.2408                 1.3665                 1.4562
 Frc consts  --     1.0545                 1.1797                 1.2769
 IR Inten    --    66.5859                33.1876                 3.2288

                    94                     95                     96
                     A                      A                      A
 Frequencies --  1239.6698              1245.7511              1259.7574
 Red. masses --     1.3953                 1.4387                 3.1467
 Frc consts  --     1.2634                 1.3155                 2.9422
 IR Inten    --    30.5421                49.4126                49.1902

                    97                     98                     99
                     A                      A                      A
 Frequencies --  1269.3442              1270.5260              1291.8109
 Red. masses --     1.5535                 2.1651                 3.5322
 Frc consts  --     1.4747                 2.0592                 3.4729
 IR Inten    --    31.2167                44.7871                 4.1863

                   100                    101                    102
                     A                      A                      A
 Frequencies --  1296.9616              1300.7752              1311.9171
 Red. masses --     1.7294                 1.3363                 2.6767
 Frc consts  --     1.7139                 1.3322                 2.7143
 IR Inten    --     1.3144                 4.5564                 6.3816

                   103                    104                    105
                     A                      A                      A
 Frequencies --  1320.8831              1321.5815              1331.7519
 Red. masses --     1.6928                 1.7010                 3.4932
 Frc consts  --     1.7401                 1.7504                 3.6502
 IR Inten    --    50.7264                18.1993                33.3348

                   106                    107                    108
                     A                      A                      A
 Frequencies --  1334.5985              1348.1931              1357.8691
 Red. masses --     1.3460                 1.5654                 1.6489
 Frc consts  --     1.4125                 1.6764                 1.7912
 IR Inten    --     4.5425                50.2888                 4.0532

                   109                    110                    111
                     A                      A                      A
 Frequencies --  1367.5715              1376.7366              1379.2462
 Red. masses --     1.6638                 3.0048                 1.4155
 Frc consts  --     1.8334                 3.3556                 1.5866
 IR Inten    --     4.1513                17.6915                25.0026

                   112                    113                    114
                     A                      A                      A
 Frequencies --  1389.1142              1416.7237              1428.4013
 Red. masses --     1.3518                 2.1154                 2.3985
 Frc consts  --     1.5368                 2.5016                 2.8833
 IR Inten    --     7.1826               151.6743                 5.1639

                   115                    116                    117
                     A                      A                      A
 Frequencies --  1430.0231              1439.2222              1448.0286
 Red. masses --     3.6471                 4.6488                 1.2912
 Frc consts  --     4.3943                 5.6734                 1.5951
 IR Inten    --     2.7968                 5.3888                28.7766

                   118                    119                    120
                     A                      A                      A
 Frequencies --  1458.8696              1470.6778              1478.8378
 Red. masses --     2.7818                 1.0936                 1.1190
 Frc consts  --     3.4882                 1.3936                 1.4418
 IR Inten    --    54.5767                 4.1649                 7.2520

                   121                    122                    123
                     A                      A                      A
 Frequencies --  1483.9302              1489.8476              1501.5244
 Red. masses --     1.0927                 3.4095                 1.1404
 Frc consts  --     1.4177                 4.4589                 1.5149
 IR Inten    --     4.2208                24.0484                 8.4139

                   124                    125                    126
                     A                      A                      A
 Frequencies --  1502.4445              1530.2038              1546.9294
 Red. masses --     2.1428                 3.8044                 2.9118
 Frc consts  --     2.8499                 5.2485                 4.1053
 IR Inten    --    50.2709                20.5999                60.9930

                   127                    128                    129
                     A                      A                      A
 Frequencies --  1604.0314              1622.4716              1635.9488
 Red. masses --     5.5401                 6.7687                 7.3739
 Frc consts  --     8.3983                10.4980                11.6275
 IR Inten    --     4.4925                 5.1151                 2.4250

                   130                    131                    132
                     A                      A                      A
 Frequencies --  1637.6880              1658.7559              1669.3682
 Red. masses --     6.2279                 6.2694                 7.4918
 Frc consts  --     9.8413                10.1635                12.3010
 IR Inten    --     1.9617                16.5592                14.5318

                   133                    134                    135
                     A                      A                      A
 Frequencies --  1771.9223              2979.0047              3007.0655
 Red. masses --    12.0724                 1.0729                 1.0704
 Frc consts  --    22.3322                 5.6097                 5.7027
 IR Inten    --   235.5895                50.4788                85.0557

                   136                    137                    138
                     A                      A                      A
 Frequencies --  3045.1543              3054.9600              3061.9990
 Red. masses --     1.0651                 1.0636                 1.0726
 Frc consts  --     5.8190                 5.8486                 5.9249
 IR Inten    --    11.5786                15.4690                29.7701

                   139                    140                    141
                     A                      A                      A
 Frequencies --  3078.4937              3085.9332              3105.5883
 Red. masses --     1.0891                 1.0933                 1.1045
 Frc consts  --     6.0812                 6.1345                 6.2765
 IR Inten    --    24.8153                12.1662                31.9591

                   142                    143                    144
                     A                      A                      A
 Frequencies --  3107.7197              3115.2398              3150.6766
 Red. masses --     1.0931                 1.1002                 1.0918
 Frc consts  --     6.2202                 6.2909                 6.3856
 IR Inten    --    25.7561                13.0885                19.9718

                   145                    146                    147
                     A                      A                      A
 Frequencies --  3153.2832              3156.3660              3178.3701
 Red. masses --     1.0879                 1.0918                 1.0857
 Frc consts  --     6.3734                 6.4084                 6.4622
 IR Inten    --    27.8439                 4.5976                 1.8447

                   148                    149                    150
                     A                      A                      A
 Frequencies --  3179.4216              3183.1418              3191.0322
 Red. masses --     1.0884                 1.0876                 1.0893
 Frc consts  --     6.4823                 6.4927                 6.5355
 IR Inten    --    24.8199                 0.5048                 7.1412

                   151                    152                    153
                     A                      A                      A
 Frequencies --  3192.6037              3198.6191              3200.2415
 Red. masses --     1.0898                 1.0959                 1.0965
 Frc consts  --     6.5449                 6.6060                 6.6167
 IR Inten    --    13.4111                 7.4306                17.8885

                   154                    155                    156
                     A                      A                      A
 Frequencies --  3206.8071              3211.4694              3226.8215
 Red. masses --     1.0948                 1.0970                 1.0939
 Frc consts  --     6.6334                 6.6662                 6.7111
 IR Inten    --    18.1543                 7.5428                 4.1671

 - Thermochemistry -
 -------------------
 Temperature   298.150 Kelvin.  Pressure   1.00000 Atm.
 Atom     1 has atomic number  8 and mass  15.99491

 Molecular mass:   413.18518 amu.
 Principal axes and moments of inertia in atomic units:
                           1         2         3
     Eigenvalues --  8280.42081********************
           X            0.99999   0.00062   0.00523
           Y           -0.00057   0.99994  -0.01099
           Z           -0.00524   0.01098   0.99993
 This molecule is an asymmetric top.
 Rotational symmetry number  1.
 Warning -- assumption of classical behavior for rotation
           may cause significant error
 Rotational temperatures (Kelvin)      0.01046     0.00325     0.00274
 Rotational constants (GHZ):           0.21795     0.06772     0.05719
 Zero-point vibrational energy    1144350.9 (Joules/Mol)
                                  273.50642 (Kcal/Mol)
 Warning -- explicit consideration of  38 degrees of freedom as
           vibrations may cause significant error
 Vibrational temperatures:     19.16    29.17    31.87    43.20    44.79
          (Kelvin)             65.58    77.60    97.98   103.90   108.95
                              117.11   136.80   191.77   239.10   253.70
                              287.45   317.99   334.75   372.49   381.55
                              418.87   456.83   487.40   518.65   565.39
                              580.17   595.48   607.78   632.20   634.84
                              659.72   693.27   745.55   777.00   823.35
                              839.66   842.12   845.69   897.29   916.41
                              937.28   958.51   972.50  1000.86  1034.61
                             1052.05  1069.05  1090.10  1092.39  1131.17
                             1131.89  1138.90  1155.35  1184.76  1197.33
                             1211.36  1216.63  1237.68  1243.26  1276.32
                             1321.96  1324.50  1339.31  1360.05  1364.03
                             1377.76  1390.19  1391.83  1406.05  1411.91
                             1424.82  1433.57  1444.75  1454.39  1463.48
                             1473.55  1485.78  1504.93  1543.50  1552.47
                             1578.32  1585.78  1621.81  1625.02  1636.04
                             1641.68  1645.51  1648.95  1692.71  1725.30
                             1727.99  1741.54  1755.23  1783.61  1792.36
                             1812.51  1826.30  1828.00  1858.63  1866.04
                             1871.52  1887.55  1900.45  1901.46  1916.09
                             1920.19  1939.75  1953.67  1967.63  1980.81
                             1984.43  1998.62  2038.35  2055.15  2057.48
                             2070.72  2083.39  2098.99  2115.97  2127.72
                             2135.04  2143.56  2160.36  2161.68  2201.62
                             2225.68  2307.84  2334.37  2353.76  2356.26
                             2386.58  2401.85  2549.40  4286.12  4326.49
                             4381.29  4395.40  4405.53  4429.26  4439.96
                             4468.24  4471.31  4482.13  4533.12  4536.87
                             4541.30  4572.96  4574.47  4579.83  4591.18
                             4593.44  4602.09  4604.43  4613.87  4620.58
                             4642.67

 Zero-point correction=                           0.435860 (Hartree/Particle)
 Thermal correction to Energy=                    0.461412
 Thermal correction to Enthalpy=                  0.462356
 Thermal correction to Gibbs Free Energy=         0.375155
 Sum of electronic and zero-point Energies=          -1352.214433
 Sum of electronic and thermal Energies=             -1352.188881
 Sum of electronic and thermal Enthalpies=           -1352.187937
 Sum of electronic and thermal Free Energies=        -1352.275138

                     E (Thermal)             CV                S
                      KCal/Mol        Cal/Mol-Kelvin    Cal/Mol-Kelvin
 Total                  289.540             99.552            183.530
 Electronic               0.000              0.000              0.000
 Translational            0.889              2.981             43.947
 Rotational               0.889              2.981             37.186
 Vibrational            287.763             93.590            102.397
 Vibration     1          0.593              1.987              7.442
 Vibration     2          0.593              1.986              6.607
 Vibration     3          0.593              1.985              6.431
 Vibration     4          0.594              1.984              5.828
 Vibration     5          0.594              1.983              5.756
 Vibration     6          0.595              1.979              5.000
 Vibration     7          0.596              1.976              4.668
 Vibration     8          0.598              1.969              4.208
 Vibration     9          0.598              1.967              4.092
 Vibration    10          0.599              1.965              3.999
 Vibration    11          0.600              1.962              3.857
 Vibration    12          0.603              1.953              3.553
 Vibration    13          0.613              1.920              2.898
 Vibration    14          0.624              1.884              2.478
 Vibration    15          0.628              1.872              2.367
 Vibration    16          0.638              1.840              2.135
 Vibration    17          0.648              1.809              1.951
 Vibration    18          0.653              1.791              1.858
 Vibration    19          0.668              1.748              1.669
 Vibration    20          0.671              1.737              1.627
 Vibration    21          0.687              1.690              1.467
 Vibration    22          0.704              1.640              1.323
 Vibration    23          0.719              1.598              1.218
 Vibration    24          0.735              1.554              1.120
 Vibration    25          0.760              1.485              0.989
 Vibration    26          0.769              1.463              0.951
 Vibration    27          0.777              1.440              0.913
 Vibration    28          0.785              1.421              0.884
 Vibration    29          0.799              1.384              0.828
 Vibration    30          0.801              1.380              0.823
 Vibration    31          0.817              1.342              0.770
 Vibration    32          0.838              1.290              0.705
 Vibration    33          0.873              1.210              0.614
 Vibration    34          0.895              1.162              0.565
 Vibration    35          0.928              1.091              0.500
 Vibration    36          0.940              1.067              0.479
 Vibration    37          0.942              1.063              0.476
 Vibration    38          0.945              1.058              0.471

 Optimization completed.
    -- Stationary point found.
 Normal termination of Gaussian 09 at Mon Sep  5 13:41:24 2022.
