 Gaussian 09, Revision C.01,
 Gaussian 09:  EM64L-G09RevC.01 23-Sep-2011

 -------------------------
 #p opt freq b3lyp/cc-pvdz
 -------------------------

 (Enter /opt/gaussian/l101.exe)
 ---------
 Mol23.log
 ---------
 Charge =  0 Multiplicity = 1

 SCF Done:  E(RB3LYP) =  -1238.08039550     A.U. after   15 cycles
 SCF Done:  E(RB3LYP) =  -1238.08982880     A.U. after   13 cycles
 SCF Done:  E(RB3LYP) =  -1238.09012729     A.U. after   13 cycles
 SCF Done:  E(RB3LYP) =  -1238.09025176     A.U. after   12 cycles
 SCF Done:  E(RB3LYP) =  -1238.09031267     A.U. after   13 cycles
 SCF Done:  E(RB3LYP) =  -1238.09039925     A.U. after   12 cycles
 SCF Done:  E(RB3LYP) =  -1238.09050890     A.U. after   13 cycles
 SCF Done:  E(RB3LYP) =  -1238.09052143     A.U. after   11 cycles
 SCF Done:  E(RB3LYP) =  -1238.09052473     A.U. after   10 cycles
 SCF Done:  E(RB3LYP) =  -1238.09052561     A.U. after    8 cycles
 SCF Done:  E(RB3LYP) =  -1238.09052580     A.U. after    8 cycles
 SCF Done:  E(RB3LYP) =  -1238.09052585     A.U. after    8 cycles
 SCF Done:  E(RB3LYP) =  -1238.09052586     A.U. after    7 cycles
 SCF Done:  E(RB3LYP) =  -1238.09052588     A.U. after    7 cycles
 SCF Done:  E(RB3LYP) =  -1238.09052588     A.U. after    7 cycles
 Optimization completed.
    -- Stationary point found.
 Normal termination of Gaussian 09 at Sun Sep  4 14:36:17 2022.

 -------------------------------------------------------------------
 #P Geom=AllCheck Guess=TCheck SCRF=Check GenChk RB3LYP/CC-pVDZ Freq
 -------------------------------------------------------------------

 Structure from the checkpoint file:  /home/scr/lqcapf-6/Gau-209584.chk
 ---------
 Mol23.log
 ---------
 Charge =  0 Multiplicity = 1

                         Standard orientation:
 ---------------------------------------------------------------------
 Center     Atomic      Atomic             Coordinates (Angstroms)
 Number     Number       Type             X           Y           Z
 ---------------------------------------------------------------------
      1          8           0        1.344082   -0.759322   -0.391075
      2          6           0        1.427409    0.454041   -0.464738
      3          6           0        2.803753    1.142376   -0.568087
      4          7           0        3.878617    0.195906   -0.732781
      5          7           0        4.598677    0.217022   -1.898059
      6          7           0        5.544023   -0.655029   -1.836255
      7          6           0        5.478168   -1.283687   -0.607661
      8          6           0        6.287084   -2.289738   -0.050080
      9          6           0        5.980630   -2.718148    1.233582
     10          6           0        4.888864   -2.167885    1.952855
     11          6           0        4.075101   -1.179215    1.414839
     12          6           0        4.395104   -0.742825    0.118443
     13          7           0        0.325103    1.289506   -0.457894
     14          6           0        0.413656    2.760514   -0.423582
     15          6           0        0.399257    3.347982    0.974222
     16          6           0       -0.045726    4.780337    1.167535
     17          6           0       -0.909262    3.647014    1.669875
     18          6           0       -0.983696    0.700202   -0.360006
     19          6           0       -1.329538   -0.131921    0.711689
     20          6           0       -2.609584   -0.676626    0.791538
     21          6           0       -3.583373   -0.406061   -0.187683
     22          6           0       -3.220334    0.426112   -1.261567
     23          6           0       -1.936533    0.964314   -1.351403
     24          6           0       -4.946507   -0.983893   -0.092588
     25          6           0       -5.170647   -2.296623    0.354438
     26          6           0       -6.475184   -2.782895    0.420770
     27          6           0       -7.523955   -1.944030    0.034244
     28          7           0       -7.342678   -0.685943   -0.390224
     29          6           0       -6.085669   -0.233390   -0.443519
     30          1           0        2.856945    1.797847   -1.447720
     31          1           0        2.981866    1.763707    0.326131
     32          1           0        7.120493   -2.706114   -0.617808
     33          1           0        6.583783   -3.497815    1.703220
     34          1           0        4.676893   -2.541452    2.957220
     35          1           0        3.220243   -0.783416    1.962814
     36          1           0        1.317995    3.079204   -0.960144
     37          1           0       -0.434799    3.162716   -0.997109
     38          1           0        1.219284    3.009190    1.615888
     39          1           0        0.490884    5.391148    1.896454
     40          1           0       -0.388258    5.329813    0.286270
     41          1           0       -1.834010    3.430847    1.129669
     42          1           0       -0.967713    3.478469    2.747290
     43          1           0       -0.592984   -0.352826    1.483494
     44          1           0       -2.865818   -1.304022    1.647782
     45          1           0       -3.937969    0.624668   -2.059886
     46          1           0       -1.666583    1.578024   -2.213452
     47          1           0       -4.327375   -2.936780    0.623489
     48          1           0       -6.677889   -3.802131    0.755963
     49          1           0       -8.559720   -2.298130    0.066291
     50          1           0       -5.968230    0.805661   -0.769473
 ---------------------------------------------------------------------

 SCF Done:  E(RB3LYP) =  -1238.09052588     A.U. after    1 cycles

 The electronic state is 1-A.
 Alpha  occ. eigenvalues --  -19.12302 -14.41120 -14.38933 -14.38083 -14.34716
 Alpha  occ. eigenvalues --  -14.33154 -10.30597 -10.25917 -10.25173 -10.24303
 Alpha  occ. eigenvalues --  -10.23111 -10.22825 -10.22747 -10.21727 -10.21507
 Alpha  occ. eigenvalues --  -10.21462 -10.21413 -10.21030 -10.20934 -10.20841
 Alpha  occ. eigenvalues --  -10.20741 -10.20710 -10.20611 -10.20569 -10.20539
 Alpha  occ. eigenvalues --  -10.20319 -10.19980 -10.19808 -10.19410  -1.09345
 Alpha  occ. eigenvalues --   -1.05574  -0.96137  -0.94722  -0.92423  -0.88044
 Alpha  occ. eigenvalues --   -0.87101  -0.86356  -0.82017  -0.78823  -0.77741
 Alpha  occ. eigenvalues --   -0.76858  -0.76461  -0.75134  -0.74352  -0.72432
 Alpha  occ. eigenvalues --   -0.66021  -0.64825  -0.64495  -0.62631  -0.62187
 Alpha  occ. eigenvalues --   -0.61815  -0.61495  -0.59983  -0.59080  -0.56755
 Alpha  occ. eigenvalues --   -0.53862  -0.53273  -0.52909  -0.52327  -0.51886
 Alpha  occ. eigenvalues --   -0.50314  -0.50149  -0.48961  -0.48779  -0.47127
 Alpha  occ. eigenvalues --   -0.46598  -0.46584  -0.45569  -0.45274  -0.44827
 Alpha  occ. eigenvalues --   -0.44428  -0.43662  -0.43518  -0.42155  -0.41687
 Alpha  occ. eigenvalues --   -0.40863  -0.40610  -0.40092  -0.39263  -0.38365
 Alpha  occ. eigenvalues --   -0.38143  -0.37779  -0.37398  -0.36783  -0.36623
 Alpha  occ. eigenvalues --   -0.35951  -0.35536  -0.32986  -0.31958  -0.31131
 Alpha  occ. eigenvalues --   -0.30909  -0.30701  -0.28746  -0.27642  -0.26794
 Alpha  occ. eigenvalues --   -0.26534  -0.26522  -0.26024  -0.24880  -0.23617
 Alpha  occ. eigenvalues --   -0.23267
 Alpha virt. eigenvalues --   -0.05103  -0.04127  -0.03179  -0.02387  -0.00416
 Alpha virt. eigenvalues --    0.00547   0.01550   0.03012   0.03734   0.04925
 Alpha virt. eigenvalues --    0.05704   0.06108   0.06720   0.06854   0.08151

 Mulliken atomic charges:
              1
     1  O   -0.243863
     2  C    0.135050
     3  C    0.114642
     4  N   -0.228293
     5  N   -0.060801
     6  N   -0.181610
     7  C    0.010724
     8  C    0.044600
     9  C    0.037657
    10  C    0.038940
    11  C    0.034557
    12  C    0.213240
    13  N   -0.285816
    14  C    0.153067
    15  C   -0.106298
    16  C   -0.002195
    17  C    0.007575
    18  C    0.084060
    19  C    0.096348
    20  C    0.016941
    21  C    0.034767
    22  C    0.023016
    23  C    0.060675
    24  C   -0.046057
    25  C    0.075666
    26  C   -0.007995
    27  C    0.105405
    28  N   -0.173368
    29  C    0.099343
    30  H    0.063560
    31  H    0.049854
    32  H   -0.022422
    33  H   -0.027440
    34  H   -0.026396
    35  H   -0.033748
    36  H    0.031207
    37  H    0.006499
    38  H   -0.012888
    39  H    0.026746
    40  H    0.021955
    41  H    0.032319
    42  H    0.025277
    43  H   -0.032128
    44  H   -0.034225
    45  H   -0.030659
    46  H   -0.027632
    47  H   -0.022852
    48  H   -0.021884
    49  H   -0.002889
    50  H   -0.012232
 Sum of Mulliken atomic charges =   0.00000

 Dipole moment (field-independent basis, Debye):
    X=             -1.7386    Y=              2.5197    Z=              3.8601  Tot=              4.9267
 Quadrupole moment (field-independent basis, Debye-Ang):
   XX=           -196.7554   YY=           -151.5283   ZZ=           -168.3903
   XY=              9.0835   XZ=             13.7859   YZ=             -7.8823

  Exact polarizability: 382.372  -0.979 265.338  -3.979 -43.840 213.773
 Approx polarizability: 513.072 -20.783 428.420  -9.141-102.872 392.432

                     1                      2                      3
                     A                      A                      A
 Frequencies --    16.0388                20.5297                22.0509
 Red. masses --     5.0841                 6.6930                 5.9970
 Frc consts  --     0.0008                 0.0017                 0.0017
 IR Inten    --     0.8285                 1.3009                 0.1165

                     4                      5                      6
                     A                      A                      A
 Frequencies --    30.9537                36.3089                52.2684
 Red. masses --     4.2173                 4.6683                 3.4990
 Frc consts  --     0.0024                 0.0036                 0.0056
 IR Inten    --     1.1035                 0.8530                 0.3196

                     7                      8                      9
                     A                      A                      A
 Frequencies --    61.9236                69.2475                69.3208
 Red. masses --     3.6208                 5.5699                 4.0202
 Frc consts  --     0.0082                 0.0157                 0.0114
 IR Inten    --     0.4270                 1.6878                 1.1339

                    10                     11                     12
                     A                      A                      A
 Frequencies --    85.4561                95.5655               131.4369
 Red. masses --     6.2420                 4.9506                 5.1694
 Frc consts  --     0.0269                 0.0266                 0.0526
 IR Inten    --     2.2309                 0.5976                 0.9364

                    13                     14                     15
                     A                      A                      A
 Frequencies --   173.6017               181.9691               212.9578
 Red. masses --     6.0998                 4.2726                 4.5681
 Frc consts  --     0.1083                 0.0834                 0.1221
 IR Inten    --     0.4083                 0.9654                 2.7662

                    16                     17                     18
                     A                      A                      A
 Frequencies --   230.9160               238.3067               250.0051
 Red. masses --     5.4171                 3.8195                 3.4461
 Frc consts  --     0.1702                 0.1278                 0.1269
 IR Inten    --     0.4684                 1.0073                 2.7964

                    19                     20                     21
                     A                      A                      A
 Frequencies --   262.9853               321.5850               335.5817
 Red. masses --     2.9664                 4.7456                 4.3415
 Frc consts  --     0.1209                 0.2892                 0.2881
 IR Inten    --     2.0320                 2.4201                 1.4850

                    22                     23                     24
                     A                      A                      A
 Frequencies --   348.7288               368.1156               407.1676
 Red. masses --     5.8470                 4.8172                 2.9458
 Frc consts  --     0.4189                 0.3846                 0.2877
 IR Inten    --     4.7041                 7.6401                 1.3835

                    25                     26                     27
                     A                      A                      A
 Frequencies --   413.8949               422.8462               439.2997
 Red. masses --     3.2363                 3.0369                 2.8946
 Frc consts  --     0.3266                 0.3199                 0.3291
 IR Inten    --     2.3653                 0.9878                 2.5707

                    28                     29                     30
                     A                      A                      A
 Frequencies --   444.4547               451.9628               477.9816
 Red. masses --     4.2347                 3.0077                 4.6151
 Frc consts  --     0.4929                 0.3620                 0.6212
 IR Inten    --     0.4012                 5.3987                 1.7535

                    31                     32                     33
                     A                      A                      A
 Frequencies --   518.0392               539.9318               571.1341
 Red. masses --     3.8593                 5.5161                 3.7469
 Frc consts  --     0.6102                 0.9475                 0.7201
 IR Inten    --     2.9167                 0.6977                 7.4702

                    34                     35                     36
                     A                      A                      A
 Frequencies --   579.5786               584.5785               591.9918
 Red. masses --     3.2654                 4.0070                 5.6276
 Frc consts  --     0.6463                 0.8068                 1.1620
 IR Inten    --     1.0721                 0.9281                12.3277

                    37                     38                     39
                     A                      A                      A
 Frequencies --   627.3029               637.3254               653.2621
 Red. masses --     6.4054                 5.9126                 6.2083
 Frc consts  --     1.4851                 1.4150                 1.5610
 IR Inten    --     1.7694                12.3740                 2.2049

                    40                     41                     42
                     A                      A                      A
 Frequencies --   667.2172               676.4482               729.1562
 Red. masses --     6.0672                 5.0357                 4.7225
 Frc consts  --     1.5914                 1.3576                 1.4793
 IR Inten    --     3.7534                 9.2425                 6.5361

                    43                     44                     45
                     A                      A                      A
 Frequencies --   731.9542               757.1006               759.0759
 Red. masses --     2.0863                 3.3673                 1.3941
 Frc consts  --     0.6586                 1.1372                 0.4733
 IR Inten    --    19.0904                 5.5290                47.2746

                    46                     47                     48
                     A                      A                      A
 Frequencies --   767.8593               785.4285               787.3092
 Red. masses --     1.1787                 3.6431                 4.4673
 Frc consts  --     0.4095                 1.3241                 1.6315
 IR Inten    --     0.1302                 2.3856                 1.5057

                    49                     50                     51
                     A                      A                      A
 Frequencies --   795.2208               803.6323               823.8148
 Red. masses --     2.3482                 2.7009                 1.6455
 Frc consts  --     0.8749                 1.0277                 0.6580
 IR Inten    --     1.0049                30.7809                29.2182

                    52                     53                     54
                     A                      A                      A
 Frequencies --   832.6242               837.1776               843.1065
 Red. masses --     5.0357                 1.8021                 1.2792
 Frc consts  --     2.0569                 0.7442                 0.5357
 IR Inten    --    18.1816                19.1606                 2.4909

                    55                     56                     57
                     A                      A                      A
 Frequencies --   859.8759               863.1710               873.4647
 Red. masses --     1.9865                 1.5749                 1.9883
 Frc consts  --     0.8654                 0.6913                 0.8938
 IR Inten    --     5.8536                 0.7071                 5.7421

                    58                     59                     60
                     A                      A                      A
 Frequencies --   912.3103               925.8912               947.9493
 Red. masses --     2.5743                 4.4185                 1.3508
 Frc consts  --     1.2624                 2.2317                 0.7152
 IR Inten    --     2.9593                 3.0602                 0.3404

                    61                     62                     63
                     A                      A                      A
 Frequencies --   952.8158               957.3976               964.0657
 Red. masses --     2.6040                 1.3689                 2.9035
 Frc consts  --     1.3929                 0.7393                 1.5899
 IR Inten    --    57.7747                 1.0245                19.7734

                    64                     65                     66
                     A                      A                      A
 Frequencies --   969.0123               978.1676               980.7917
 Red. masses --     1.4366                 1.4562                 1.3565
 Frc consts  --     0.7948                 0.8209                 0.7688
 IR Inten    --     1.2969                 0.6386                 0.7114

                    67                     68                     69
                     A                      A                      A
 Frequencies --   996.4667              1005.2774              1015.2320
 Red. masses --     1.2905                 1.3908                 3.5775
 Frc consts  --     0.7550                 0.8281                 2.1725
 IR Inten    --     0.0901                 1.0860                34.5996

                    70                     71                     72
                     A                      A                      A
 Frequencies --  1020.1411              1025.1198              1033.2909
 Red. masses --     3.2891                 2.0332                 2.8997
 Frc consts  --     2.0168                 1.2588                 1.8241
 IR Inten    --     3.0054                12.4404                 3.1740

                    73                     74                     75
                     A                      A                      A
 Frequencies --  1045.2150              1047.0243              1066.5730
 Red. masses --     2.5567                 1.7608                 1.3559
 Frc consts  --     1.6456                 1.1373                 0.9088
 IR Inten    --     3.6490                 3.5652                 3.7983

                    76                     77                     78
                     A                      A                      A
 Frequencies --  1078.7444              1091.3654              1112.9870
 Red. masses --     1.9470                 3.1962                 1.1482
 Frc consts  --     1.3349                 2.2429                 0.8380
 IR Inten    --     0.7141                85.2728                 2.1937

                    79                     80                     81
                     A                      A                      A
 Frequencies --  1125.1986              1127.3232              1136.6940
 Red. masses --     2.0344                 2.1320                 1.4650
 Frc consts  --     1.5176                 1.5964                 1.1153
 IR Inten    --    20.9146                12.4037                10.5851

                    82                     83                     84
                     A                      A                      A
 Frequencies --  1138.4520              1144.8014              1159.4000
 Red. masses --     1.7615                 1.4091                 1.7625
 Frc consts  --     1.3452                 1.0881                 1.3959
 IR Inten    --    31.0479                 4.4783                67.1987

                    85                     86                     87
                     A                      A                      A
 Frequencies --  1177.1437              1181.0608              1195.9961
 Red. masses --     1.5139                 1.3887                 1.1572
 Frc consts  --     1.2360                 1.1413                 0.9753
 IR Inten    --     6.5583                 0.3158                 3.0733

                    88                     89                     90
                     A                      A                      A
 Frequencies --  1219.7947              1223.3068              1246.7732
 Red. masses --     1.4479                 1.7114                 2.4598
 Frc consts  --     1.2693                 1.5090                 2.2528
 IR Inten    --     6.6961                 4.3886               173.9206

                    91                     92                     93
                     A                      A                      A
 Frequencies --  1265.5007              1270.7174              1291.8290
 Red. masses --     2.2694                 2.8160                 3.3787
 Frc consts  --     2.1414                 2.6791                 3.3221
 IR Inten    --    61.5516                 7.7590                 3.6131

                    94                     95                     96
                     A                      A                      A
 Frequencies --  1295.0268              1310.9024              1318.9963
 Red. masses --     1.6790                 2.3136                 1.5915
 Frc consts  --     1.6591                 2.3425                 1.6313
 IR Inten    --     1.7662                 0.5699                43.6202

                    97                     98                     99
                     A                      A                      A
 Frequencies --  1321.0833              1329.3695              1343.4113
 Red. masses --     1.7959                 3.7289                 1.7466
 Frc consts  --     1.8467                 3.8826                 1.8572
 IR Inten    --     1.5178                13.6524                55.0267

                   100                    101                    102
                     A                      A                      A
 Frequencies --  1351.1836              1356.3197              1376.7430
 Red. masses --     1.2900                 1.6224                 4.2064
 Frc consts  --     1.3876                 1.7585                 4.6975
 IR Inten    --    10.7484                 4.7384                20.7801

                   103                    104                    105
                     A                      A                      A
 Frequencies --  1405.5809              1421.0140              1425.4324
 Red. masses --     1.7654                 1.6275                 2.1746
 Frc consts  --     2.0550                 1.9363                 2.6033
 IR Inten    --   101.8834                39.5222                16.9063

                   106                    107                    108
                     A                      A                      A
 Frequencies --  1430.6594              1436.6886              1439.1639
 Red. masses --     3.0772                 5.0385                 1.1262
 Frc consts  --     3.7109                 6.1274                 1.3743
 IR Inten    --    32.4654                12.2616                 8.9085

                   109                    110                    111
                     A                      A                      A
 Frequencies --  1444.2456              1456.7602              1469.9655
 Red. masses --     1.6497                 2.8782                 1.1078
 Frc consts  --     2.0274                 3.5987                 1.4104
 IR Inten    --   105.3843                14.0497                13.2804

                   112                    113                    114
                     A                      A                      A
 Frequencies --  1489.1824              1493.2098              1502.6934
 Red. masses --     3.5603                 1.5256                 2.3127
 Frc consts  --     4.6519                 2.0042                 3.0769
 IR Inten    --    22.2848                 5.4815                54.6693

                   115                    116                    117
                     A                      A                      A
 Frequencies --  1529.2547              1546.6439              1604.5125
 Red. masses --     3.7290                 2.9557                 5.5677
 Frc consts  --     5.1381                 4.1657                 8.4452
 IR Inten    --    20.2934                53.8168                 4.9931

                   118                    119                    120
                     A                      A                      A
 Frequencies --  1623.0590              1635.0411              1637.9913
 Red. masses --     6.8231                 7.3402                 6.2474
 Frc consts  --    10.5902                11.5615                 9.8758
 IR Inten    --     4.4655                 2.8257                 2.1748

                   121                    122                    123
                     A                      A                      A
 Frequencies --  1658.4924              1668.8766              1768.4123
 Red. masses --     6.3111                 7.4322                12.0767
 Frc consts  --    10.2278                12.1959                22.2519
 IR Inten    --    13.6815                14.0374               266.4088

                   124                    125                    126
                     A                      A                      A
 Frequencies --  3036.6078              3065.6276              3107.8133
 Red. masses --     1.0675                 1.0633                 1.0993
 Frc consts  --     5.7995                 5.8877                 6.2559
 IR Inten    --    43.8821                15.9833                22.2980

                   127                    128                    129
                     A                      A                      A
 Frequencies --  3122.4770              3123.1623              3129.9392
 Red. masses --     1.0564                 1.0912                 1.0605
 Frc consts  --     6.0683                 6.2713                 6.1213
 IR Inten    --    15.1808                 2.1996                17.9866

                   130                    131                    132
                     A                      A                      A
 Frequencies --  3135.6813              3150.7302              3155.8451
 Red. masses --     1.0886                 1.0888                 1.0907
 Frc consts  --     6.3066                 6.3684                 6.3998
 IR Inten    --    14.3055                25.8107                10.2322

                   133                    134                    135
                     A                      A                      A
 Frequencies --  3179.1491              3181.0694              3181.2844
 Red. masses --     1.0860                 1.0880                 1.0889
 Frc consts  --     6.4670                 6.4865                 6.4930
 IR Inten    --     2.3998                22.7471                 5.4890

                   136                    137                    138
                     A                      A                      A
 Frequencies --  3187.1385              3193.7010              3198.4909
 Red. masses --     1.0890                 1.0904                 1.0951
 Frc consts  --     6.5173                 6.5527                 6.6006
 IR Inten    --     1.9086                12.9320                 7.4860

                   139                    140                    141
                     A                      A                      A
 Frequencies --  3200.5828              3208.6058              3210.4085
 Red. masses --     1.0976                 1.1191                 1.0953
 Frc consts  --     6.6242                 6.7884                 6.6513
 IR Inten    --    14.4778                 1.0539                16.7178

                   142                    143                    144
                     A                      A                      A
 Frequencies --  3215.1118              3220.4237              3223.2935
 Red. masses --     1.0960                 1.0943                 1.1166
 Frc consts  --     6.6749                 6.6864                 6.8350
 IR Inten    --     5.8188                 4.4056                13.7913

 - Thermochemistry -
 -------------------
 Temperature   298.150 Kelvin.  Pressure   1.00000 Atm.
 Atom     1 has atomic number  8 and mass  15.99491

 Molecular mass:   383.17461 amu.
 Principal axes and moments of inertia in atomic units:
                           1         2         3
     Eigenvalues --  6364.34209********************
           X            0.99999   0.00047   0.00357
           Y           -0.00045   0.99999  -0.00395
           Z           -0.00358   0.00395   0.99999
 This molecule is an asymmetric top.
 Rotational symmetry number  1.
 Warning -- assumption of classical behavior for rotation
           may cause significant error
 Rotational temperatures (Kelvin)      0.01361     0.00334     0.00294
 Rotational constants (GHZ):           0.28357     0.06963     0.06116
 Zero-point vibrational energy    1051021.8 (Joules/Mol)
                                  251.20025 (Kcal/Mol)
 Warning -- explicit consideration of  36 degrees of freedom as
           vibrations may cause significant error
 Vibrational temperatures:     23.08    29.54    31.73    44.54    52.24
          (Kelvin)             75.20    89.09    99.63    99.74   122.95
                              137.50   189.11   249.77   261.81   306.40
                              332.24   342.87   359.70   378.38   462.69
                              482.83   501.74   529.64   585.82   595.50
                              608.38   632.05   639.47   650.27   687.71
                              745.34   776.84   821.73   833.88   841.08
                              851.74   902.55   916.97   939.90   959.98
                              973.26  1049.09  1053.12  1089.30  1092.14
                             1104.78  1130.05  1132.76  1144.14  1156.25
                             1185.28  1197.96  1204.51  1213.04  1237.17
                             1241.91  1256.72  1312.61  1332.15  1363.89
                             1370.89  1377.48  1387.07  1394.19  1407.36
                             1411.14  1433.69  1446.37  1460.69  1467.75
                             1474.92  1486.67  1503.83  1506.43  1534.56
                             1552.07  1570.23  1601.34  1618.91  1621.96
                             1635.45  1637.98  1647.11  1668.12  1693.65
                             1699.28  1720.77  1755.01  1760.06  1793.83
                             1820.77  1828.28  1858.65  1863.25  1886.09
                             1897.74  1900.74  1912.66  1932.87  1944.05
                             1951.44  1980.82  2022.31  2044.52  2050.88
                             2058.40  2067.07  2070.63  2077.94  2095.95
                             2114.95  2142.60  2148.39  2162.04  2200.25
                             2225.27  2308.53  2335.22  2352.46  2356.70
                             2386.20  2401.14  2544.35  4369.00  4410.75
                             4471.44  4492.54  4493.53  4503.28  4511.54
                             4533.19  4540.55  4574.08  4576.84  4577.15
                             4585.58  4595.02  4601.91  4604.92  4616.46
                             4619.06  4625.82  4633.47  4637.59

 Zero-point correction=                           0.400313 (Hartree/Particle)
 Thermal correction to Energy=                    0.424346
 Thermal correction to Enthalpy=                  0.425290
 Thermal correction to Gibbs Free Energy=         0.341968
 Sum of electronic and zero-point Energies=          -1237.690213
 Sum of electronic and thermal Energies=             -1237.666180
 Sum of electronic and thermal Enthalpies=           -1237.665236
 Sum of electronic and thermal Free Energies=        -1237.748558

                     E (Thermal)             CV                S
                      KCal/Mol        Cal/Mol-Kelvin    Cal/Mol-Kelvin
 Total                  266.281             93.714            175.367
 Electronic               0.000              0.000              0.000
 Translational            0.889              2.981             43.722
 Rotational               0.889              2.981             36.830
 Vibrational            264.504             87.752             94.815
 Vibration     1          0.593              1.986              7.073
 Vibration     2          0.593              1.986              6.582
 Vibration     3          0.593              1.985              6.440
 Vibration     4          0.594              1.984              5.767
 Vibration     5          0.594              1.982              5.451
 Vibration     6          0.596              1.977              4.730
 Vibration     7          0.597              1.972              4.395
 Vibration     8          0.598              1.969              4.175
 Vibration     9          0.598              1.969              4.173
 Vibration    10          0.601              1.959              3.761
 Vibration    11          0.603              1.952              3.543
 Vibration    12          0.612              1.922              2.925
 Vibration    13          0.627              1.875              2.396
 Vibration    14          0.630              1.864              2.308
 Vibration    15          0.644              1.821              2.018
 Vibration    16          0.653              1.794              1.872
 Vibration    17          0.656              1.782              1.815
 Vibration    18          0.663              1.763              1.731
 Vibration    19          0.670              1.741              1.642
 Vibration    20          0.707              1.632              1.302
 Vibration    21          0.717              1.604              1.233
 Vibration    22          0.726              1.578              1.172
 Vibration    23          0.741              1.538              1.088
 Vibration    24          0.772              1.455              0.937
 Vibration    25          0.777              1.440              0.913
 Vibration    26          0.785              1.421              0.882
 Vibration    27          0.799              1.384              0.829
 Vibration    28          0.804              1.373              0.813
 Vibration    29          0.811              1.357              0.790
 Vibration    30          0.834              1.299              0.716
 Vibration    31          0.873              1.210              0.615
 Vibration    32          0.895              1.162              0.565
 Vibration    33          0.927              1.094              0.502
 Vibration    34          0.936              1.075              0.486
 Vibration    35          0.942              1.065              0.477
 Vibration    36          0.949              1.049              0.464

 Optimization completed.
    -- Stationary point found.
 Normal termination of Gaussian 09 at Sun Sep  4 16:46:36 2022.
