 Gaussian 09, Revision C.01,
 Gaussian 09:  EM64L-G09RevC.01 23-Sep-2011

 -------------------------
 #p opt freq b3lyp/cc-pvdz
 -------------------------

 (Enter /opt/gaussian/l101.exe)
 ---------
 Mol20.log
 ---------
 Charge =  0 Multiplicity = 1

 SCF Done:  E(RB3LYP) =  -1690.46040993     A.U. after   15 cycles
 SCF Done:  E(RB3LYP) =  -1690.47198216     A.U. after   12 cycles
 SCF Done:  E(RB3LYP) =  -1690.47270064     A.U. after   13 cycles
 SCF Done:  E(RB3LYP) =  -1690.47282687     A.U. after   12 cycles
 SCF Done:  E(RB3LYP) =  -1690.47287281     A.U. after   13 cycles
 SCF Done:  E(RB3LYP) =  -1690.47306520     A.U. after   11 cycles
 SCF Done:  E(RB3LYP) =  -1690.47317793     A.U. after   13 cycles
 SCF Done:  E(RB3LYP) =  -1690.47322452     A.U. after   12 cycles
 SCF Done:  E(RB3LYP) =  -1690.47325404     A.U. after   11 cycles
 SCF Done:  E(RB3LYP) =  -1690.47327077     A.U. after   12 cycles
 SCF Done:  E(RB3LYP) =  -1690.47330764     A.U. after   11 cycles
 SCF Done:  E(RB3LYP) =  -1690.47331781     A.U. after    9 cycles
 SCF Done:  E(RB3LYP) =  -1690.47332101     A.U. after   12 cycles
 SCF Done:  E(RB3LYP) =  -1690.47332241     A.U. after   10 cycles
 SCF Done:  E(RB3LYP) =  -1690.47332299     A.U. after    8 cycles
 SCF Done:  E(RB3LYP) =  -1690.47332320     A.U. after    8 cycles
 SCF Done:  E(RB3LYP) =  -1690.47332328     A.U. after    7 cycles
 SCF Done:  E(RB3LYP) =  -1690.47332333     A.U. after    7 cycles
 SCF Done:  E(RB3LYP) =  -1690.47332334     A.U. after    7 cycles
 Optimization completed.
    -- Stationary point found.
 Normal termination of Gaussian 09 at Sat Sep  3 22:43:03 2022.

 -------------------------------------------------------------------
 #P Geom=AllCheck Guess=TCheck SCRF=Check GenChk RB3LYP/CC-pVDZ Freq
 -------------------------------------------------------------------

 Structure from the checkpoint file:  /home/scr/lqcapf-6/Gau-186405.chk
 ---------
 Mol20.log
 ---------
 Charge =  0 Multiplicity = 1

                         Standard orientation:
 ---------------------------------------------------------------------
 Center     Atomic      Atomic             Coordinates (Angstroms)
 Number     Number       Type             X           Y           Z
 ---------------------------------------------------------------------
      1          6           0       -8.830636   -0.602646    0.800115
      2          7           0       -7.474488   -0.943652    0.412195
      3          6           0       -7.030385   -2.154594   -0.046762
      4          7           0       -5.743377   -2.146438   -0.314677
      5          6           0       -5.309141   -0.866438   -0.019484
      6          6           0       -6.377621   -0.108661    0.433646
      7          6           0       -3.903841   -0.477537   -0.198687
      8          6           0       -2.969193   -1.413002   -0.678086
      9          6           0       -1.631112   -1.076740   -0.864568
     10          6           0       -1.177408    0.219331   -0.569698
     11          6           0       -2.101371    1.159939   -0.086209
     12          6           0       -3.441086    0.816460    0.090872
     13          7           0        0.191547    0.603397   -0.791432
     14          6           0        0.450933    1.937245   -1.358911
     15          6           0        1.061464    2.941682   -0.401648
     16          6           0        0.828402    2.973706    1.015195
     17          6           0        1.468801    4.011513    1.639980
     18         16           0        2.372950    4.977562    0.516154
     19          6           0        1.886727    3.963846   -0.806807
     20          6           0        1.224414   -0.268766   -0.478568
     21          8           0        1.052084   -1.359477    0.037325
     22          6           0        2.650517    0.222649   -0.791741
     23          7           0        3.614448   -0.851847   -0.779415
     24          7           0        4.239281   -1.182313   -1.952044
     25          7           0        5.106745   -2.109380   -1.732549
     26          6           0        5.082903   -2.417898   -0.386372
     27          6           0        5.842208   -3.341866    0.354023
     28          6           0        5.602128   -3.418493    1.718184
     29          6           0        4.622216   -2.602902    2.340928
     30          6           0        3.857700   -1.691352    1.624773
     31          6           0        4.112404   -1.610249    0.245283
     32          1           0       -8.872859   -0.300521    1.858462
     33          1           0       -9.221363    0.219416    0.179929
     34          1           0       -9.473690   -1.482075    0.660993
     35          1           0       -7.701029   -3.004600   -0.162312
     36          1           0       -6.459765    0.923009    0.761964
     37          1           0       -3.317349   -2.419618   -0.911204
     38          1           0       -0.933497   -1.825762   -1.232133
     39          1           0       -1.780990    2.172519    0.163765
     40          1           0       -4.129169    1.575856    0.468770
     41          1           0        1.088105    1.845920   -2.252739
     42          1           0       -0.516670    2.307519   -1.723394
     43          1           0        0.219387    2.241668    1.545448
     44          1           0        1.466347    4.263336    2.698526
     45          1           0        2.239228    4.179960   -1.814012
     46          1           0        2.723937    0.667749   -1.792003
     47          1           0        2.935449    0.998200   -0.062194
     48          1           0        6.588054   -3.965971   -0.140526
     49          1           0        6.169850   -4.122857    2.329716
     50          1           0        4.457050   -2.704612    3.415950
     51          1           0        3.081860   -1.094039    2.102638
 ---------------------------------------------------------------------

 SCF Done:  E(RB3LYP) =  -1690.47332334     A.U. after    1 cycles

 The electronic state is 1-A.
 Alpha  occ. eigenvalues --  -88.92148 -19.11930 -14.40497 -14.39833 -14.38321
 Alpha  occ. eigenvalues --  -14.38057 -14.34122 -14.31110 -10.30092 -10.25313
 Alpha  occ. eigenvalues --  -10.25229 -10.24978 -10.24279 -10.23282 -10.22878
 Alpha  occ. eigenvalues --  -10.22679 -10.22453 -10.21743 -10.21649 -10.20916
 Alpha  occ. eigenvalues --  -10.20742 -10.20417 -10.19646 -10.19578 -10.19523
 Alpha  occ. eigenvalues --  -10.19306 -10.19295 -10.19204 -10.18816 -10.18658
 Alpha  occ. eigenvalues --  -10.18268  -7.98352  -5.94672  -5.94293  -5.93994
 Alpha  occ. eigenvalues --   -1.08730  -1.05137  -1.02500  -0.95813  -0.91730
 Alpha  occ. eigenvalues --   -0.89669  -0.89460  -0.85726  -0.85350  -0.78816
 Alpha  occ. eigenvalues --   -0.77613  -0.76810  -0.76104  -0.75188  -0.74540
 Alpha  occ. eigenvalues --   -0.74304  -0.73630  -0.71317  -0.69617  -0.64816
 Alpha  occ. eigenvalues --   -0.64167  -0.61778  -0.61500  -0.59983  -0.58587
 Alpha  occ. eigenvalues --   -0.57900  -0.57590  -0.56507  -0.55194  -0.54194
 Alpha  occ. eigenvalues --   -0.52808  -0.52153  -0.51865  -0.51005  -0.50554
 Alpha  occ. eigenvalues --   -0.48408  -0.47664  -0.47192  -0.46060  -0.45882
 Alpha  occ. eigenvalues --   -0.45165  -0.44571  -0.44455  -0.43907  -0.43546
 Alpha  occ. eigenvalues --   -0.42810  -0.42471  -0.42289  -0.41878  -0.41481
 Alpha  occ. eigenvalues --   -0.41313  -0.41028  -0.40690  -0.39319  -0.38634
 Alpha  occ. eigenvalues --   -0.38331  -0.37108  -0.36867  -0.36567  -0.35989
 Alpha  occ. eigenvalues --   -0.35616  -0.34916  -0.34518  -0.32388  -0.30642
 Alpha  occ. eigenvalues --   -0.30317  -0.27602  -0.27321  -0.27013  -0.26486
 Alpha  occ. eigenvalues --   -0.25981  -0.25405  -0.25110  -0.24845  -0.24252
 Alpha  occ. eigenvalues --   -0.22697  -0.20480
 Alpha virt. eigenvalues --   -0.03541  -0.03449  -0.03007  -0.00922   0.00921
 Alpha virt. eigenvalues --    0.01610   0.02341   0.02424   0.03005   0.04218
 Alpha virt. eigenvalues --    0.04399   0.04997   0.06555   0.07103   0.07172

 Mulliken atomic charges:
              1
     1  C    0.080060
     2  N   -0.161405
     3  C    0.137362
     4  N   -0.222677
     5  C    0.089369
     6  C    0.017262
     7  C    0.017446
     8  C    0.042681
     9  C    0.087994
    10  C    0.096109
    11  C    0.023619
    12  C   -0.018608
    13  N   -0.284292
    14  C    0.156070
    15  C   -0.040404
    16  C    0.046784
    17  C   -0.098396
    18  S    0.159473
    19  C   -0.145486
    20  C    0.137180
    21  O   -0.246257
    22  C    0.129931
    23  N   -0.227789
    24  N   -0.063945
    25  N   -0.183749
    26  C    0.010376
    27  C    0.042954
    28  C    0.037338
    29  C    0.037994
    30  C    0.038811
    31  C    0.209126
    32  H    0.048125
    33  H    0.047745
    34  H    0.040480
    35  H    0.002002
    36  H   -0.011500
    37  H   -0.031254
    38  H   -0.017376
    39  H   -0.032271
    40  H   -0.055471
    41  H    0.026674
    42  H    0.052331
    43  H   -0.006871
    44  H    0.017824
    45  H    0.006060
    46  H    0.049862
    47  H    0.068662
    48  H   -0.024727
    49  H   -0.029304
    50  H   -0.026887
    51  H   -0.029035
 Sum of Mulliken atomic charges =   0.00000

 Dipole moment (field-independent basis, Debye):
    X=             -7.0749    Y=              5.4398    Z=              3.0615  Tot=              9.4350
 Quadrupole moment (field-independent basis, Debye-Ang):
   XX=           -140.0598   YY=           -183.6776   ZZ=           -183.3487
   XY=              4.6932   XZ=              3.5816   YZ=             -6.6867

  Exact polarizability: 418.742   2.835 301.063 -19.799   1.765 233.455
 Approx polarizability: 542.857 -12.293 493.863 -48.533   4.920 436.948

                     1                      2                      3
                     A                      A                      A
 Frequencies --    10.1748                18.9202                21.0808
 Red. masses --     6.4115                 4.9339                 5.9513
 Frc consts  --     0.0004                 0.0010                 0.0016
 IR Inten    --     0.7134                 1.8200                 0.7640

                     4                      5                      6
                     A                      A                      A
 Frequencies --    26.6350                29.2621                38.7880
 Red. masses --     7.9449                 5.4872                 4.6069
 Frc consts  --     0.0033                 0.0028                 0.0041
 IR Inten    --     0.4828                 0.6498                 1.5485

                     7                      8                      9
                     A                      A                      A
 Frequencies --    56.2586                62.7624                65.5744
 Red. masses --     4.3983                 4.4556                 4.9150
 Frc consts  --     0.0082                 0.0103                 0.0125
 IR Inten    --     0.3831                 1.8077                 0.4836

                    10                     11                     12
                     A                      A                      A
 Frequencies --    75.9639                82.6689                97.3213
 Red. masses --     1.2010                 5.7002                 4.9385
 Frc consts  --     0.0041                 0.0230                 0.0276
 IR Inten    --     0.0717                 2.8255                 0.9942

                    13                     14                     15
                     A                      A                      A
 Frequencies --   122.6835               158.7425               170.5435
 Red. masses --     4.8213                 4.7928                 6.2485
 Frc consts  --     0.0428                 0.0712                 0.1071
 IR Inten    --     4.0408                 2.1564                 1.3376

                    16                     17                     18
                     A                      A                      A
 Frequencies --   191.6996               209.9997               213.3473
 Red. masses --     5.1503                 5.0686                 4.3640
 Frc consts  --     0.1115                 0.1317                 0.1170
 IR Inten    --     0.5456                 0.5810                 2.8503

                    19                     20                     21
                     A                      A                      A
 Frequencies --   231.3860               246.2215               272.1057
 Red. masses --     5.8115                 3.6775                 4.6589
 Frc consts  --     0.1833                 0.1314                 0.2032
 IR Inten    --     0.5292                 2.4561                 2.5351

                    22                     23                     24
                     A                      A                      A
 Frequencies --   277.4312               314.9416               339.3788
 Red. masses --     5.1160                 3.8867                 3.9798
 Frc consts  --     0.2320                 0.2271                 0.2701
 IR Inten    --     2.6795                 0.3244                 2.6004

                    25                     26                     27
                     A                      A                      A
 Frequencies --   344.4829               396.2245               415.0683
 Red. masses --     5.6557                 6.0884                 5.0318
 Frc consts  --     0.3954                 0.5632                 0.5108
 IR Inten    --     6.0352                12.2599                 0.5176

                    28                     29                     30
                     A                      A                      A
 Frequencies --   417.7765               435.1596               440.6187
 Red. masses --     3.2162                 3.0216                 2.8969
 Frc consts  --     0.3307                 0.3371                 0.3314
 IR Inten    --     2.4765                 3.1116                 2.8858

                    31                     32                     33
                     A                      A                      A
 Frequencies --   460.9797               476.8272               488.4105
 Red. masses --     4.5496                 4.5321                 4.1071
 Frc consts  --     0.5696                 0.6071                 0.5772
 IR Inten    --     0.2034                 1.4214                 1.8850

                    34                     35                     36
                     A                      A                      A
 Frequencies --   540.0429               544.7381               572.2668
 Red. masses --     5.0636                 3.2835                 4.0654
 Frc consts  --     0.8701                 0.5741                 0.7844
 IR Inten    --     0.5880                 6.8868                 0.6164

                    37                     38                     39
                     A                      A                      A
 Frequencies --   580.6937               585.3353               606.6002
 Red. masses --     4.5854                 3.9748                 5.4917
 Frc consts  --     0.9110                 0.8024                 1.1906
 IR Inten    --     1.5265                 0.1909                23.9915

                    40                     41                     42
                     A                      A                      A
 Frequencies --   617.8407               626.0263               646.8001
 Red. masses --     4.3279                 2.8237                 6.4878
 Frc consts  --     0.9734                 0.6520                 1.5991
 IR Inten    --     3.5681                 8.9422                 0.9593

                    43                     44                     45
                     A                      A                      A
 Frequencies --   650.7702               668.9667               681.0905
 Red. masses --     6.3098                 7.3217                 5.5444
 Frc consts  --     1.5744                 1.9305                 1.5153
 IR Inten    --     0.4184                 4.1331                 9.0758

                    46                     47                     48
                     A                      A                      A
 Frequencies --   690.3680               698.3907               701.7348
 Red. masses --     1.2332                 1.9613                 3.2851
 Frc consts  --     0.3463                 0.5636                 0.9531
 IR Inten    --     5.0100                 1.3817                 8.4434

                    49                     50                     51
                     A                      A                      A
 Frequencies --   716.2305               731.8041               759.6101
 Red. masses --     4.2213                 2.7453                 1.3817
 Frc consts  --     1.2759                 0.8662                 0.4697
 IR Inten    --    16.0347                21.9230                46.3076

                    52                     53                     54
                     A                      A                      A
 Frequencies --   772.8830               774.7690               782.2896
 Red. masses --     3.2593                 3.5974                 1.5486
 Frc consts  --     1.1471                 1.2723                 0.5584
 IR Inten    --     2.2306                 8.8685                36.9831

                    55                     56                     57
                     A                      A                      A
 Frequencies --   786.4579               793.3719               817.5713
 Red. masses --     3.3718                 5.2324                 1.4027
 Frc consts  --     1.2287                 1.9404                 0.5524
 IR Inten    --     3.0645                 7.9903                28.0286

                    58                     59                     60
                     A                      A                      A
 Frequencies --   824.6139               836.1608               837.1232
 Red. masses --     5.5910                 3.1803                 1.5983
 Frc consts  --     2.2400                 1.3101                 0.6599
 IR Inten    --    16.4820                31.3567                13.5980

                    61                     62                     63
                     A                      A                      A
 Frequencies --   864.3483               865.7215               867.0056
 Red. masses --     1.6289                 3.5756                 2.3787
 Frc consts  --     0.7170                 1.5789                 1.0535
 IR Inten    --     1.0015                21.8855                 7.8805

                    64                     65                     66
                     A                      A                      A
 Frequencies --   881.0485               902.2778               922.8499
 Red. masses --     2.4196                 1.3127                 4.7225
 Frc consts  --     1.1066                 0.6296                 2.3696
 IR Inten    --    15.8891                 0.8394                 5.1539

                    67                     68                     69
                     A                      A                      A
 Frequencies --   939.0693               954.1234               957.0203
 Red. masses --     3.1757                 6.9118                 2.7065
 Frc consts  --     1.6500                 3.7072                 1.4605
 IR Inten    --     5.1640                48.2659                50.3649

                    70                     71                     72
                     A                      A                      A
 Frequencies --   958.4860               962.0274               995.9413
 Red. masses --     1.5511                 1.3564                 1.2890
 Frc consts  --     0.8396                 0.7396                 0.7533
 IR Inten    --    12.0234                 0.5429                 0.1374

                    73                     74                     75
                     A                      A                      A
 Frequencies --   999.1570              1004.1767              1024.4139
 Red. masses --     2.4063                 1.3579                 2.0118
 Frc consts  --     1.4154                 0.8068                 1.2439
 IR Inten    --    27.7643                 0.8287                12.5505

                    76                     77                     78
                     A                      A                      A
 Frequencies --  1028.3839              1058.8305              1069.4421
 Red. masses --     2.8159                 3.4465                 1.4848
 Frc consts  --     1.7546                 2.2766                 1.0005
 IR Inten    --     1.9436                16.7473                 2.8835

                    79                     80                     81
                     A                      A                      A
 Frequencies --  1085.9962              1092.2717              1093.9087
 Red. masses --     2.3387                 1.1200                 3.1639
 Frc consts  --     1.6251                 0.7873                 2.2306
 IR Inten    --     2.9537                 3.3708                58.7832

                    82                     83                     84
                     A                      A                      A
 Frequencies --  1125.3804              1127.3385              1131.6324
 Red. masses --     2.5071                 2.3127                 1.3160
 Frc consts  --     1.8707                 1.7317                 0.9929
 IR Inten    --     8.8019                20.8282                 0.0157

                    85                     86                     87
                     A                      A                      A
 Frequencies --  1141.5915              1144.1349              1163.9168
 Red. masses --     1.5116                 1.4070                 1.5580
 Frc consts  --     1.1607                 1.0852                 1.2436
 IR Inten    --    10.7397                 1.8224                 7.4823

                    88                     89                     90
                     A                      A                      A
 Frequencies --  1177.1107              1202.7729              1209.3254
 Red. masses --     1.5133                 1.1424                 1.7757
 Frc consts  --     1.2354                 0.9737                 1.5301
 IR Inten    --     6.5148                 2.6910                73.5531

                    91                     92                     93
                     A                      A                      A
 Frequencies --  1218.7578              1241.0289              1244.4507
 Red. masses --     1.6006                 1.5733                 1.6200
 Frc consts  --     1.4007                 1.4276                 1.4782
 IR Inten    --   197.1413                37.9257                29.7211

                    94                     95                     96
                     A                      A                      A
 Frequencies --  1250.3475              1271.6189              1295.2599
 Red. masses --     3.4576                 2.7256                 1.6556
 Frc consts  --     3.1848                 2.5967                 1.6365
 IR Inten    --    61.0838                 4.1651                 1.4505

                    97                     98                     99
                     A                      A                      A
 Frequencies --  1306.9335              1317.8071              1332.7648
 Red. masses --     2.1055                 1.5722                 2.1399
 Frc consts  --     2.1189                 1.6087                 2.2395
 IR Inten    --     6.4363                39.9847               100.5872

                   100                    101                    102
                     A                      A                      A
 Frequencies --  1340.2809              1350.9644              1357.6976
 Red. masses --     1.8738                 5.5934                 1.9721
 Frc consts  --     1.9832                 6.0147                 2.1419
 IR Inten    --    27.3745                 7.0836                36.4847

                   103                    104                    105
                     A                      A                      A
 Frequencies --  1376.7771              1391.0797              1411.3307
 Red. masses --     3.0278                 3.7407                 1.6796
 Frc consts  --     3.3815                 4.2648                 1.9711
 IR Inten    --    27.3530                10.1666               150.9669

                   106                    107                    108
                     A                      A                      A
 Frequencies --  1418.5183              1424.6803              1427.1303
 Red. masses --     2.7682                 2.3613                 3.2291
 Frc consts  --     3.2818                 2.8238                 3.8749
 IR Inten    --     6.7042                 3.8613               114.7882

                   109                    110                    111
                     A                      A                      A
 Frequencies --  1433.8192              1440.2358              1440.8049
 Red. masses --     4.0475                 1.7156                 1.9141
 Frc consts  --     4.9026                 2.0967                 2.3411
 IR Inten    --     6.2684                28.8388                37.6513

                   112                    113                    114
                     A                      A                      A
 Frequencies --  1453.7918              1454.2263              1462.5332
 Red. masses --     3.2077                 1.0377                 5.8891
 Frc consts  --     3.9943                 1.2930                 7.4218
 IR Inten    --    28.9276                 8.6458                42.4636

                   115                    116                    117
                     A                      A                      A
 Frequencies --  1471.7680              1488.5998              1492.5353
 Red. masses --     1.1083                 3.5247                 1.1706
 Frc consts  --     1.4145                 4.6018                 1.5365
 IR Inten    --    36.5546                25.3836                14.0960

                   118                    119                    120
                     A                      A                      A
 Frequencies --  1529.2912              1529.6485              1540.6286
 Red. masses --     3.3775                 3.6860                 3.4920
 Frc consts  --     4.6539                 5.0815                 4.8833
 IR Inten    --   150.3622                11.1551                10.8992

                   121                    122                    123
                     A                      A                      A
 Frequencies --  1581.8373              1596.5985              1618.4424
 Red. masses --     6.1068                 5.1670                 7.3107
 Frc consts  --     9.0031                 7.7603                11.2825
 IR Inten    --     0.6388                52.0824                 0.7600

                   124                    125                    126
                     A                      A                      A
 Frequencies --  1634.9245              1663.4233              1668.5428
 Red. masses --     7.3542                 6.1744                 7.4398
 Frc consts  --    11.5819                10.0658                12.2035
 IR Inten    --     2.8501                 1.4702                14.7399

                   127                    128                    129
                     A                      A                      A
 Frequencies --  1764.5971              3037.8341              3046.9980
 Red. masses --    12.0282                 1.0350                 1.0687
 Frc consts  --    22.0669                 5.6275                 5.8457
 IR Inten    --   259.8758                79.6116                25.7914

                   130                    131                    132
                     A                      A                      A
 Frequencies --  3054.0452              3101.2794              3104.7660
 Red. masses --     1.0668                 1.0961                 1.1058
 Frc consts  --     5.8626                 6.2115                 6.2802
 IR Inten    --    19.2114                 7.5927                15.6095

                   133                    134                    135
                     A                      A                      A
 Frequencies --  3133.4913              3143.2008              3176.9842
 Red. masses --     1.0965                 1.1023                 1.0873
 Frc consts  --     6.3432                 6.4164                 6.4657
 IR Inten    --     3.3110                 6.1962                17.1937

                   136                    137                    138
                     A                      A                      A
 Frequencies --  3178.4149              3193.0529              3198.7145
 Red. masses --     1.0860                 1.0907                 1.0938
 Frc consts  --     6.4642                 6.5516                 6.5941
 IR Inten    --     3.0287                14.0511                10.2458

                   139                    140                    141
                     A                      A                      A
 Frequencies --  3209.8019              3213.2372              3218.2851
 Red. masses --     1.0959                 1.0897                 1.0901
 Frc consts  --     6.6522                 6.6289                 6.6521
 IR Inten    --    15.5951                 0.2615                 0.2544

                   142                    143                    144
                     A                      A                      A
 Frequencies --  3219.1094              3237.6280              3238.3662
 Red. masses --     1.0952                 1.0968                 1.0946
 Frc consts  --     6.6869                 6.7739                 6.7633
 IR Inten    --     5.1170                 3.5568                 1.0436

                   145                    146                    147
                     A                      A                      A
 Frequencies --  3242.0915              3252.3972              3266.6220
 Red. masses --     1.0938                 1.0995                 1.0984
 Frc consts  --     6.7739                 6.8523                 6.9057
 IR Inten    --     1.6893                 0.3773                 1.5186

 - Thermochemistry -
 -------------------
 Temperature   298.150 Kelvin.  Pressure   1.00000 Atm.
 Atom     1 has atomic number  6 and mass  12.00000

 Molecular mass:   428.14193 amu.
 Principal axes and moments of inertia in atomic units:
                           1         2         3
     Eigenvalues --  ******************************
           X            1.00000  -0.00263   0.00035
           Y            0.00263   0.99996  -0.00880
           Z           -0.00033   0.00880   0.99996
 This molecule is an asymmetric top.
 Rotational symmetry number  1.
 Warning -- assumption of classical behavior for rotation
           may cause significant error
 Rotational temperatures (Kelvin)      0.00862     0.00303     0.00243
 Rotational constants (GHZ):           0.17971     0.06305     0.05071
 Zero-point vibrational energy    1039038.6 (Joules/Mol)
                                  248.33618 (Kcal/Mol)
 Warning -- explicit consideration of  40 degrees of freedom as
           vibrations may cause significant error
 Vibrational temperatures:     14.64    27.22    30.33    38.32    42.10
          (Kelvin)             55.81    80.94    90.30    94.35   109.30
                              118.94   140.02   176.51   228.39   245.37
                              275.81   302.14   306.96   332.91   354.26
                              391.50   399.16   453.13   488.29   495.63
                              570.08   597.19   601.09   626.10   633.95
                              663.25   686.05   702.71   777.00   783.76
                              823.36   835.49   842.17   872.76   888.93
                              900.71   930.60   936.31   962.49   979.94
                              993.28  1004.83  1009.64  1030.49  1052.90
                             1092.91  1112.00  1114.72  1125.54  1131.54
                             1141.48  1176.30  1186.43  1203.05  1204.43
                             1243.60  1245.58  1247.43  1267.63  1298.17
                             1327.77  1351.11  1372.77  1376.94  1379.05
                             1384.14  1432.94  1437.56  1444.78  1473.90
                             1479.61  1523.42  1538.69  1562.50  1571.53
                             1573.89  1619.17  1621.99  1628.16  1642.49
                             1646.15  1674.61  1693.60  1730.52  1739.95
                             1753.52  1785.56  1790.48  1798.97  1829.57
                             1863.59  1880.38  1896.03  1917.55  1928.36
                             1943.73  1953.42  1980.87  2001.45  2030.59
                             2040.93  2049.79  2053.32  2062.94  2072.18
                             2072.99  2091.68  2092.30  2104.26  2117.54
                             2141.76  2147.42  2200.31  2200.82  2216.62
                             2275.91  2297.15  2328.57  2352.29  2393.29
                             2400.66  2538.86  4370.76  4383.95  4394.08
                             4462.04  4467.06  4508.39  4522.36  4570.97
                             4573.02  4594.09  4602.23  4618.18  4623.13
                             4630.39  4631.57  4658.22  4659.28  4664.64
                             4679.47  4699.93

 Zero-point correction=                           0.395749 (Hartree/Particle)
 Thermal correction to Energy=                    0.422004
 Thermal correction to Enthalpy=                  0.422948
 Thermal correction to Gibbs Free Energy=         0.333466
 Sum of electronic and zero-point Energies=          -1690.077574
 Sum of electronic and thermal Energies=             -1690.051319
 Sum of electronic and thermal Enthalpies=           -1690.050375
 Sum of electronic and thermal Free Energies=        -1690.139857

                     E (Thermal)             CV                S
                      KCal/Mol        Cal/Mol-Kelvin    Cal/Mol-Kelvin
 Total                  264.811            100.960            188.331
 Electronic               0.000              0.000              0.000
 Translational            0.889              2.981             44.053
 Rotational               0.889              2.981             37.568
 Vibrational            263.034             94.998            106.710
 Vibration     1          0.593              1.987              7.977
 Vibration     2          0.593              1.986              6.744
 Vibration     3          0.593              1.985              6.530
 Vibration     4          0.593              1.984              6.065
 Vibration     5          0.593              1.984              5.879
 Vibration     6          0.594              1.981              5.320
 Vibration     7          0.596              1.975              4.584
 Vibration     8          0.597              1.972              4.368
 Vibration     9          0.597              1.971              4.282
 Vibration    10          0.599              1.965              3.993
 Vibration    11          0.600              1.961              3.826
 Vibration    12          0.603              1.951              3.507
 Vibration    13          0.610              1.930              3.058
 Vibration    14          0.621              1.893              2.565
 Vibration    15          0.626              1.879              2.429
 Vibration    16          0.634              1.851              2.211
 Vibration    17          0.642              1.826              2.044
 Vibration    18          0.644              1.821              2.015
 Vibration    19          0.653              1.793              1.868
 Vibration    20          0.661              1.769              1.757
 Vibration    21          0.675              1.725              1.583
 Vibration    22          0.678              1.715              1.549
 Vibration    23          0.702              1.645              1.336
 Vibration    24          0.719              1.597              1.215
 Vibration    25          0.723              1.586              1.191
 Vibration    26          0.763              1.478              0.977
 Vibration    27          0.778              1.438              0.909
 Vibration    28          0.781              1.432              0.900
 Vibration    29          0.796              1.394              0.842
 Vibration    30          0.801              1.382              0.825
 Vibration    31          0.819              1.337              0.763
 Vibration    32          0.833              1.301              0.719
 Vibration    33          0.844              1.276              0.688
 Vibration    34          0.895              1.162              0.565
 Vibration    35          0.900              1.151              0.555
 Vibration    36          0.928              1.091              0.500
 Vibration    37          0.937              1.073              0.484
 Vibration    38          0.942              1.063              0.476
 Vibration    39          0.965              1.018              0.438
 Vibration    40          0.978              0.994              0.420

 Normal termination of Gaussian 09 at Sun Sep  4 00:55:24 2022.
