 Gaussian 09, Revision C.01,
 Gaussian 09:  EM64L-G09RevC.01 23-Sep-2011

 -------------------------
 #p opt freq b3lyp/cc-pvdz
 -------------------------

 (Enter /opt/gaussian/l101.exe)
 ---------
 Mol28.log
 ---------
 Charge =  0 Multiplicity = 1

 SCF Done:  E(RB3LYP) =  -1812.05975812     A.U. after   15 cycles
 SCF Done:  E(RB3LYP) =  -1812.07049248     A.U. after   13 cycles
 SCF Done:  E(RB3LYP) =  -1812.07101564     A.U. after   13 cycles
 SCF Done:  E(RB3LYP) =  -1812.07113378     A.U. after   13 cycles
 SCF Done:  E(RB3LYP) =  -1812.07117341     A.U. after   12 cycles
 SCF Done:  E(RB3LYP) =  -1812.07123413     A.U. after   11 cycles
 SCF Done:  E(RB3LYP) =  -1812.07123944     A.U. after   11 cycles
 SCF Done:  E(RB3LYP) =  -1812.07125631     A.U. after   10 cycles
 SCF Done:  E(RB3LYP) =  -1812.07126079     A.U. after   10 cycles
 SCF Done:  E(RB3LYP) =  -1812.07126379     A.U. after   10 cycles
 SCF Done:  E(RB3LYP) =  -1812.07126642     A.U. after   10 cycles
 SCF Done:  E(RB3LYP) =  -1812.07126809     A.U. after   10 cycles
 SCF Done:  E(RB3LYP) =  -1812.07126868     A.U. after    8 cycles
 SCF Done:  E(RB3LYP) =  -1812.07126911     A.U. after    8 cycles
 SCF Done:  E(RB3LYP) =  -1812.07126933     A.U. after    7 cycles
 SCF Done:  E(RB3LYP) =  -1812.07126942     A.U. after    7 cycles
 SCF Done:  E(RB3LYP) =  -1812.07126944     A.U. after    6 cycles
 Optimization completed.
    -- Stationary point found.
 Normal termination of Gaussian 09 at Tue Sep  6 00:07:24 2022.

 -------------------------------------------------------------------
 #P Geom=AllCheck Guess=TCheck SCRF=Check GenChk RB3LYP/CC-pVDZ Freq
 -------------------------------------------------------------------

 Structure from the checkpoint file:  /home/scr/lqcapf-6/Gau-259419.chk
 ---------
 Mol28.log
 ---------
 Charge =  0 Multiplicity = 1

                         Standard orientation:
 ---------------------------------------------------------------------
 Center     Atomic      Atomic             Coordinates (Angstroms)
 Number     Number       Type             X           Y           Z
 ---------------------------------------------------------------------
      1         17           0       -2.972342    5.916947   -0.456143
      2          6           0       -2.199386    4.453423    0.135847
      3          6           0       -2.169003    4.200315    1.510094
      4          6           0       -1.554196    3.031071    1.959083
      5          6           0       -0.978378    2.130884    1.055513
      6          6           0       -1.012516    2.392613   -0.319878
      7          6           0       -1.633234    3.565039   -0.777532
      8          6           0       -0.382461    1.461621   -1.350840
      9          7           0        0.028980    0.139494   -0.867182
     10          6           0       -0.900423   -0.876344   -0.666130
     11          8           0       -0.620768   -1.957705   -0.184616
     12          6           0       -2.348648   -0.560084   -1.095377
     13          7           0       -3.217408   -1.695678   -0.927977
     14          7           0       -3.659644   -2.365494   -2.037532
     15          7           0       -4.418825   -3.340852   -1.676449
     16          6           0       -4.497681   -3.345651   -0.296700
     17          6           0       -5.200228   -4.192438    0.578634
     18          6           0       -5.092072   -3.937969    1.938610
     19          6           0       -4.300629   -2.867663    2.428095
     20          6           0       -3.596794   -2.023722    1.578215
     21          6           0       -3.713709   -2.283706    0.202974
     22          6           0        1.421221   -0.075479   -0.587643
     23          6           0        2.197658    0.963380   -0.050397
     24          6           0        3.562816    0.787186    0.177065
     25          6           0        4.200330   -0.430055   -0.112489
     26          6           0        3.408941   -1.464432   -0.645492
     27          6           0        2.046837   -1.297937   -0.883701
     28          6           0        5.651681   -0.616263    0.131491
     29          6           0        6.295967   -0.072979    1.255336
     30          6           0        7.663433   -0.280404    1.427850
     31          6           0        8.352987   -1.031301    0.472071
     32          7           0        7.768047   -1.557948   -0.612486
     33          6           0        6.456902   -1.345828   -0.765344
     34          1           0       -2.621195    4.906106    2.206982
     35          1           0       -1.522903    2.818457    3.029818
     36          1           0       -0.500299    1.222296    1.425048
     37          1           0       -1.679246    3.790013   -1.845069
     38          1           0       -1.074179    1.343976   -2.199033
     39          1           0        0.513116    1.940097   -1.772322
     40          1           0       -2.739338    0.301980   -0.531997
     41          1           0       -2.387592   -0.310203   -2.165137
     42          1           0       -5.803367   -5.013386    0.188155
     43          1           0       -5.621337   -4.572701    2.652151
     44          1           0       -4.238496   -2.707624    3.506816
     45          1           0       -2.975844   -1.214655    1.964038
     46          1           0        1.742725    1.922935    0.198701
     47          1           0        4.142590    1.623905    0.572041
     48          1           0        3.862482   -2.433042   -0.864243
     49          1           0        1.465623   -2.124913   -1.283699
     50          1           0        5.724416    0.487096    1.999030
     51          1           0        8.187568    0.123605    2.296418
     52          1           0        9.426139   -1.219993    0.581499
     53          1           0        6.010555   -1.766703   -1.672577
 ---------------------------------------------------------------------

 SCF Done:  E(RB3LYP) =  -1812.07126944     A.U. after    1 cycles

 The electronic state is 1-A.
 Alpha  occ. eigenvalues -- -101.55901 -19.13372 -14.41362 -14.39508 -14.39172
 Alpha  occ. eigenvalues --  -14.34951 -14.33126 -10.31461 -10.27195 -10.26478
 Alpha  occ. eigenvalues --  -10.26228 -10.25058 -10.23524 -10.23364 -10.22783
 Alpha  occ. eigenvalues --  -10.22734 -10.22485 -10.22449 -10.22278 -10.21999
 Alpha  occ. eigenvalues --  -10.21488 -10.21445 -10.21405 -10.21261 -10.21009
 Alpha  occ. eigenvalues --  -10.20859 -10.20614 -10.20594 -10.20535 -10.20377
 Alpha  occ. eigenvalues --  -10.20238 -10.20035 -10.19622  -9.47718  -7.23979
 Alpha  occ. eigenvalues --   -7.23006  -7.22965  -1.09634  -1.06588  -0.97397
 Alpha  occ. eigenvalues --   -0.94699  -0.92746  -0.91150  -0.87562  -0.86609
 Alpha  occ. eigenvalues --   -0.85933  -0.82201  -0.80155  -0.78913  -0.77917
 Alpha  occ. eigenvalues --   -0.77123  -0.76603  -0.75847  -0.75211  -0.73870
 Alpha  occ. eigenvalues --   -0.72192  -0.66456  -0.65074  -0.64530  -0.63774
 Alpha  occ. eigenvalues --   -0.62954  -0.62544  -0.61874  -0.61024  -0.59402
 Alpha  occ. eigenvalues --   -0.57128  -0.54685  -0.53780  -0.53466  -0.52964
 Alpha  occ. eigenvalues --   -0.52663  -0.52075  -0.50160  -0.49551  -0.49398
 Alpha  occ. eigenvalues --   -0.48107  -0.47838  -0.46931  -0.46866  -0.46157
 Alpha  occ. eigenvalues --   -0.46052  -0.45064  -0.44997  -0.44921  -0.44678
 Alpha  occ. eigenvalues --   -0.43950  -0.43825  -0.43459  -0.42191  -0.41093
 Alpha  occ. eigenvalues --   -0.40913  -0.40741  -0.40126  -0.39682  -0.38551
 Alpha  occ. eigenvalues --   -0.38205  -0.38122  -0.37779  -0.36898  -0.36847
 Alpha  occ. eigenvalues --   -0.35926  -0.35757  -0.34878  -0.33243  -0.32853
 Alpha  occ. eigenvalues --   -0.31713  -0.31355  -0.29202  -0.28502  -0.28013
 Alpha  occ. eigenvalues --   -0.27429  -0.26862  -0.26764  -0.26652  -0.26016
 Alpha  occ. eigenvalues --   -0.25125  -0.23707  -0.23190
 Alpha virt. eigenvalues --   -0.05277  -0.04512  -0.04369  -0.03930  -0.03227
 Alpha virt. eigenvalues --   -0.02404  -0.01093   0.00544   0.01150   0.01860
 Alpha virt. eigenvalues --    0.03313   0.03859   0.05256   0.05752   0.06593

 Mulliken atomic charges:
              1
     1  Cl  -0.076726
     2  C   -0.143337
     3  C    0.119115
     4  C    0.052343
     5  C    0.022137
     6  C   -0.088034
     7  C    0.119221
     8  C    0.151136
     9  N   -0.283670
    10  C    0.129087
    11  O   -0.234464
    12  C    0.122668
    13  N   -0.228294
    14  N   -0.060264
    15  N   -0.180966
    16  C    0.011521
    17  C    0.045297
    18  C    0.038104
    19  C    0.039915
    20  C    0.030198
    21  C    0.213632
    22  C    0.101173
    23  C    0.020958
    24  C    0.017377
    25  C    0.034290
    26  C    0.016807
    27  C    0.077347
    28  C   -0.042744
    29  C    0.074686
    30  C   -0.008169
    31  C    0.105544
    32  N   -0.172748
    33  C    0.099302
    34  H   -0.014785
    35  H   -0.012404
    36  H   -0.015104
    37  H   -0.031391
    38  H    0.043190
    39  H    0.054096
    40  H    0.058010
    41  H    0.063032
    42  H   -0.021237
    43  H   -0.026375
    44  H   -0.025523
    45  H   -0.032752
    46  H   -0.022868
    47  H   -0.036668
    48  H   -0.028117
    49  H   -0.010452
    50  H   -0.027955
    51  H   -0.023112
    52  H   -0.002922
    53  H   -0.009101
 Sum of Mulliken atomic charges =   0.00000

 Dipole moment (field-independent basis, Debye):
    X=              0.9865    Y=              4.8530    Z=              3.5781  Tot=              6.1096
 Quadrupole moment (field-independent basis, Debye-Ang):
   XX=           -212.0972   YY=           -209.6843   ZZ=           -189.3078
   XY=              2.9296   XZ=             -2.1688   YZ=             -6.6434

  Exact polarizability: 411.421 -10.209 320.238  10.248  11.275 274.854
 Approx polarizability: 534.249  -5.978 511.109  20.080  31.882 518.967

                     1                      2                      3
                     A                      A                      A
 Frequencies --    12.0764                14.4092                18.3695
 Red. masses --     8.3831                 7.6061                 6.6156
 Frc consts  --     0.0007                 0.0009                 0.0013
 IR Inten    --     0.2755                 1.4570                 0.2056

                     4                      5                      6
                     A                      A                      A
 Frequencies --    22.3016                26.0320                42.4087
 Red. masses --     4.9319                 6.3249                 5.0086
 Frc consts  --     0.0014                 0.0025                 0.0053
 IR Inten    --     0.2002                 0.7486                 0.5902

                     7                      8                      9
                     A                      A                      A
 Frequencies --    53.4915                67.7797                70.6346
 Red. masses --     6.3301                 5.6853                 5.3086
 Frc consts  --     0.0107                 0.0154                 0.0156
 IR Inten    --     0.6418                 1.4931                 0.5515

                    10                     11                     12
                     A                      A                      A
 Frequencies --    82.7006                99.2365               116.9591
 Red. masses --     5.3040                 5.8441                 6.0655
 Frc consts  --     0.0214                 0.0339                 0.0489
 IR Inten    --     2.4826                 0.0885                 1.6108

                    13                     14                     15
                     A                      A                      A
 Frequencies --   150.8072               154.7788               176.6195
 Red. masses --     5.9766                 7.7377                 5.8983
 Frc consts  --     0.0801                 0.1092                 0.1084
 IR Inten    --     1.1100                 1.5183                 0.4450

                    16                     17                     18
                     A                      A                      A
 Frequencies --   205.2331               214.1100               229.5701
 Red. masses --     5.0435                 5.5923                 5.1584
 Frc consts  --     0.1252                 0.1510                 0.1602
 IR Inten    --     0.0063                 1.9568                 0.7505

                    19                     20                     21
                     A                      A                      A
 Frequencies --   230.9500               240.3990               263.2410
 Red. masses --     5.8658                 4.3406                 3.4097
 Frc consts  --     0.1843                 0.1478                 0.1392
 IR Inten    --     0.7053                 1.3406                 3.8932

                    22                     23                     24
                     A                      A                      A
 Frequencies --   303.3181               335.0552               348.1646
 Red. masses --     3.3524                 4.5811                 7.2508
 Frc consts  --     0.1817                 0.3030                 0.5179
 IR Inten    --     3.4332                 2.2005                 1.6698

                    25                     26                     27
                     A                      A                      A
 Frequencies --   356.6428               386.5800               413.5950
 Red. masses --     5.2163                 6.5157                 3.2878
 Frc consts  --     0.3909                 0.5737                 0.3314
 IR Inten    --     0.9731                13.7283                 3.9396

                    28                     29                     30
                     A                      A                      A
 Frequencies --   417.5481               421.0047               431.1691
 Red. masses --     3.8350                 4.0653                 4.5701
 Frc consts  --     0.3939                 0.4245                 0.5006
 IR Inten    --     1.0525                 2.5706                 2.0850

                    31                     32                     33
                     A                      A                      A
 Frequencies --   439.1811               444.7025               449.7948
 Red. masses --     2.8952                 2.7355                 4.5077
 Frc consts  --     0.3290                 0.3187                 0.5373
 IR Inten    --     2.3032                 3.5883                 0.9385

                    34                     35                     36
                     A                      A                      A
 Frequencies --   476.5647               520.1912               531.3515
 Red. masses --     4.3134                 3.9784                 3.9858
 Frc consts  --     0.5772                 0.6343                 0.6630
 IR Inten    --     1.4747                 2.4086                 0.0318

                    37                     38                     39
                     A                      A                      A
 Frequencies --   537.6372               565.8616               574.6339
 Red. masses --     5.3756                 3.3477                 4.3967
 Frc consts  --     0.9155                 0.6316                 0.8554
 IR Inten    --     0.1432                 7.2316                 2.0157

                    40                     41                     42
                     A                      A                      A
 Frequencies --   583.3661               588.0279               608.0669
 Red. masses --     4.2859                 4.4636                 4.6022
 Frc consts  --     0.8594                 0.9093                 1.0026
 IR Inten    --     2.2580                 0.4402                17.2754

                    43                     44                     45
                     A                      A                      A
 Frequencies --   627.1170               643.8155               652.6207
 Red. masses --     7.3660                 6.6641                 6.2656
 Frc consts  --     1.7068                 1.6275                 1.5723
 IR Inten    --     4.2511                 2.9631                 0.6666

                    46                     47                     48
                     A                      A                      A
 Frequencies --   670.1257               683.4211               702.2536
 Red. masses --     7.5197                 6.0197                 3.0607
 Frc consts  --     1.9896                 1.6565                 0.8893
 IR Inten    --     3.8921                20.8458                 6.3941

                    49                     50                     51
                     A                      A                      A
 Frequencies --   712.7135               731.0731               736.7497
 Red. masses --     4.6987                 2.0314                 5.4636
 Frc consts  --     1.4062                 0.6397                 1.7473
 IR Inten    --    20.2412                17.5063                 5.9626

                    52                     53                     54
                     A                      A                      A
 Frequencies --   750.3486               760.0301               786.3613
 Red. masses --     3.7353                 1.3882                 3.4916
 Frc consts  --     1.2391                 0.4725                 1.2721
 IR Inten    --     7.0373                46.0819                 1.4422

                    55                     56                     57
                     A                      A                      A
 Frequencies --   787.5384               797.7300               798.6478
 Red. masses --     4.7741                 2.6149                 1.9426
 Frc consts  --     1.7446                 0.9804                 0.7300
 IR Inten    --     2.3678                 3.2367                19.5363

                    58                     59                     60
                     A                      A                      A
 Frequencies --   822.0598               829.6500               839.0730
 Red. masses --     1.6454                 5.9088                 1.2610
 Frc consts  --     0.6552                 2.3963                 0.5231
 IR Inten    --    21.5997                59.5151                 0.3770

                    61                     62                     63
                     A                      A                      A
 Frequencies --   857.5356               860.3822               864.6561
 Red. masses --     3.4256                 1.9147                 1.5719
 Frc consts  --     1.4842                 0.8351                 0.6924
 IR Inten    --    27.7716                15.8954                 0.7571

                    64                     65                     66
                     A                      A                      A
 Frequencies --   877.9856               901.2921               921.6695
 Red. masses --     2.5677                 1.7452                 3.8928
 Frc consts  --     1.1662                 0.8353                 1.9483
 IR Inten    --     5.9248                 2.6659                 3.2337

                    67                     68                     69
                     A                      A                      A
 Frequencies --   929.5201               947.6421               958.7747
 Red. masses --     1.4531                 1.3437                 1.3892
 Frc consts  --     0.7397                 0.7110                 0.7524
 IR Inten    --     1.1193                 0.4373                 3.6697

                    70                     71                     72
                     A                      A                      A
 Frequencies --   961.2898               966.7264               975.8449
 Red. masses --     3.4541                 1.3380                 1.4518
 Frc consts  --     1.8806                 0.7367                 0.8146
 IR Inten    --    75.4128                 1.1171                 0.6983

                    73                     74                     75
                     A                      A                      A
 Frequencies --   982.4582               997.9528              1000.3000
 Red. masses --     1.3681                 1.2915                 1.5732
 Frc consts  --     0.7780                 0.7578                 0.9274
 IR Inten    --     0.5317                 0.1588                16.0904

                    76                     77                     78
                     A                      A                      A
 Frequencies --  1004.1573              1009.0912              1012.2529
 Red. masses --     1.3887                 2.6507                 3.3004
 Frc consts  --     0.8250                 1.5903                 1.9925
 IR Inten    --     1.0669                27.0583                22.8909

                    79                     80                     81
                     A                      A                      A
 Frequencies --  1016.1685              1025.1455              1033.5813
 Red. masses --     4.5246                 2.0100                 3.2848
 Frc consts  --     2.7527                 1.2446                 2.0675
 IR Inten    --     5.3559                 9.3505                 6.1213

                    82                     83                     84
                     A                      A                      A
 Frequencies --  1047.7042              1079.3367              1094.3311
 Red. masses --     3.7889                 1.9532                 3.1829
 Frc consts  --     2.4504                 1.3406                 2.2458
 IR Inten    --     0.9513                 0.5363                72.3449

                    85                     86                     87
                     A                      A                      A
 Frequencies --  1101.1437              1112.8446              1128.0410
 Red. masses --     1.8945                 1.5678                 2.1613
 Frc consts  --     1.3534                 1.1440                 1.6204
 IR Inten    --    13.9706                15.8876                 3.3038

                    88                     89                     90
                     A                      A                      A
 Frequencies --  1133.1758              1137.3462              1146.3451
 Red. masses --     2.8482                 1.4145                 1.4339
 Frc consts  --     2.1548                 1.0781                 1.1102
 IR Inten    --    21.0762                 3.3947                 2.2226

                    91                     92                     93
                     A                      A                      A
 Frequencies --  1148.2552              1177.8129              1181.2807
 Red. masses --     1.4218                 1.5634                 1.1215
 Frc consts  --     1.1045                 1.2778                 0.9221
 IR Inten    --     6.5098                 7.5074                 1.3669

                    94                     95                     96
                     A                      A                      A
 Frequencies --  1205.5725              1208.5129              1219.9683
 Red. masses --     2.4200                 1.2356                 1.4365
 Frc consts  --     2.0723                 1.0632                 1.2597
 IR Inten    --    15.3302                62.8571                14.3294

                    97                     98                     99
                     A                      A                      A
 Frequencies --  1224.5132              1259.2013              1269.6602
 Red. masses --     1.6258                 3.1769                 2.6636
 Frc consts  --     1.4363                 2.9678                 2.5298
 IR Inten    --   222.0925                86.2735                 8.2443

                   100                    101                    102
                     A                      A                      A
 Frequencies --  1291.8943              1295.3730              1295.8680
 Red. masses --     3.6478                 1.7299                 1.5901
 Frc consts  --     3.5870                 1.7103                 1.5733
 IR Inten    --     3.8871                 3.9499                 8.0653

                   103                    104                    105
                     A                      A                      A
 Frequencies --  1313.9459              1319.4279              1326.0739
 Red. masses --     2.6263                 1.6935                 2.0788
 Frc consts  --     2.6714                 1.7371                 2.1537
 IR Inten    --     4.3847                61.7967                 1.3672

                   106                    107                    108
                     A                      A                      A
 Frequencies --  1334.8946              1340.8676              1348.1548
 Red. masses --     2.3705                 1.9929                 1.7191
 Frc consts  --     2.4888                 2.1111                 1.8409
 IR Inten    --    45.4387                15.9013                39.1835

                   109                    110                    111
                     A                      A                      A
 Frequencies --  1357.7950              1370.2570              1377.0238
 Red. masses --     1.7588                 2.1910                 3.6310
 Frc consts  --     1.9104                 2.4238                 4.0566
 IR Inten    --     1.9228                24.0317                24.7616

                   112                    113                    114
                     A                      A                      A
 Frequencies --  1405.7080              1428.1076              1430.5837
 Red. masses --     2.0000                 2.2807                 3.1707
 Frc consts  --     2.3284                 2.7406                 3.8232
 IR Inten    --   226.1131                 6.5540                 4.0182

                   115                    116                    117
                     A                      A                      A
 Frequencies --  1436.3409              1441.0065              1453.6519
 Red. masses --     1.9777                 2.7941                 2.5826
 Frc consts  --     2.4040                 3.4184                 3.2154
 IR Inten    --    10.6189                47.7451                35.6847

                   118                    119                    120
                     A                      A                      A
 Frequencies --  1459.8059              1470.2872              1490.0383
 Red. masses --     2.8389                 1.1367                 3.5785
 Frc consts  --     3.5644                 1.4477                 4.6811
 IR Inten    --    49.3173                21.7141                24.7965

                   121                    122                    123
                     A                      A                      A
 Frequencies --  1502.5163              1505.2260              1530.1363
 Red. masses --     2.3029                 2.4355                 3.8081
 Frc consts  --     3.0632                 3.2512                 5.2532
 IR Inten    --    66.5877                37.3358                20.6413

                   124                    125                    126
                     A                      A                      A
 Frequencies --  1547.3602              1603.0557              1621.7268
 Red. masses --     2.8242                 5.5932                 6.6793
 Frc consts  --     3.9841                 8.4685                10.3499
 IR Inten    --    86.1646                 4.5644                 4.4453

                   127                    128                    129
                     A                      A                      A
 Frequencies --  1624.4850              1635.9437              1637.8490
 Red. masses --     6.2550                 7.3700                 6.2411
 Frc consts  --     9.7254                11.6213                 9.8642
 IR Inten    --    25.3827                 2.5694                 1.1669

                   130                    131                    132
                     A                      A                      A
 Frequencies --  1645.9434              1660.3229              1669.3916
 Red. masses --     6.4037                 6.1530                 7.4717
 Frc consts  --    10.2214                 9.9937                12.2683
 IR Inten    --    36.1810                26.0252                14.0009

                   133                    134                    135
                     A                      A                      A
 Frequencies --  1775.6295              3052.3802              3057.8195
 Red. masses --    12.0970                 1.0638                 1.0629
 Frc consts  --    22.4715                 5.8399                 5.8558
 IR Inten    --   235.7876                21.7250                20.4069

                   136                    137                    138
                     A                      A                      A
 Frequencies --  3094.9966              3117.9530              3152.2801
 Red. masses --     1.1006                 1.1012                 1.0883
 Frc consts  --     6.2114                 6.3073                 6.3718
 IR Inten    --     7.2950                 3.1856                26.6140

                   139                    140                    141
                     A                      A                      A
 Frequencies --  3156.0013              3179.5720              3180.0160
 Red. masses --     1.0912                 1.0858                 1.0889
 Frc consts  --     6.4035                 6.4677                 6.4878
 IR Inten    --     7.3358                 1.7525                21.7801

                   142                    143                    144
                     A                      A                      A
 Frequencies --  3184.8530              3186.4294              3190.7514
 Red. masses --     1.0878                 1.0873                 1.0914
 Frc consts  --     6.5012                 6.5045                 6.5465
 IR Inten    --     1.1390                 4.6228                 0.6614

                   145                    146                    147
                     A                      A                      A
 Frequencies --  3191.9639              3193.6587              3199.7879
 Red. masses --     1.0901                 1.0899                 1.0974
 Frc consts  --     6.5440                 6.5495                 6.6202
 IR Inten    --     7.3207                11.9463                16.9223

                   148                    149                    150
                     A                      A                      A
 Frequencies --  3202.6506              3204.8253              3207.6588
 Red. masses --     1.0938                 1.0937                 1.0949
 Frc consts  --     6.6101                 6.6184                 6.6375
 IR Inten    --     6.9814                 1.9063                15.2355

                   151                    152                    153
                     A                      A                      A
 Frequencies --  3212.3813              3218.6828              3248.9371
 Red. masses --     1.0971                 1.0955                 1.0932
 Frc consts  --     6.6701                 6.6866                 6.7986
 IR Inten    --     7.4430                 1.6392                 0.3872

 - Thermochemistry -
 -------------------
 Temperature   298.150 Kelvin.  Pressure   1.00000 Atm.
 Atom     1 has atomic number 17 and mass  34.96885

 Molecular mass:   453.13564 amu.
 Principal axes and moments of inertia in atomic units:
                           1         2         3
     Eigenvalues --  ******************************
           X            0.99994   0.01043  -0.00213
           Y           -0.01044   0.99994  -0.00161
           Z            0.00212   0.00164   1.00000
 This molecule is an asymmetric top.
 Rotational symmetry number  1.
 Warning -- assumption of classical behavior for rotation
           may cause significant error
 Rotational temperatures (Kelvin)      0.00604     0.00305     0.00224
 Rotational constants (GHZ):           0.12592     0.06357     0.04665
 Zero-point vibrational energy    1076134.6 (Joules/Mol)
                                  257.20234 (Kcal/Mol)
 Warning -- explicit consideration of  42 degrees of freedom as
           vibrations may cause significant error
 Vibrational temperatures:     17.38    20.73    26.43    32.09    37.45
          (Kelvin)             61.02    76.96    97.52   101.63   118.99
                              142.78   168.28   216.98   222.69   254.12
                              295.28   308.06   330.30   332.29   345.88
                              378.74   436.41   482.07   500.93   513.13
                              556.20   595.07   600.76   605.73   620.36
                              631.88   639.83   647.15   685.67   748.44
                              764.50   773.54   814.15   826.77   839.33
                              846.04   874.87   902.28   926.31   938.97
                              964.16   983.29  1010.39  1025.43  1051.85
                             1060.02  1079.58  1093.51  1131.40  1133.09
                             1147.75  1149.07  1182.76  1193.68  1207.24
                             1233.80  1237.90  1244.05  1263.22  1296.76
                             1326.08  1337.37  1363.44  1379.46  1383.08
                             1390.90  1404.02  1413.54  1435.83  1439.21
                             1444.76  1451.86  1456.40  1462.04  1474.95
                             1487.09  1507.41  1552.92  1574.50  1584.30
                             1601.13  1623.00  1630.39  1636.39  1649.33
                             1652.08  1694.61  1699.60  1734.55  1738.78
                             1755.26  1761.80  1811.71  1826.76  1858.75
                             1863.75  1864.46  1890.47  1898.36  1907.92
                             1920.61  1929.21  1939.69  1953.56  1971.49
                             1981.23  2022.50  2054.73  2058.29  2066.57
                             2073.28  2091.48  2100.33  2115.41  2143.83
                             2161.78  2165.68  2201.52  2226.30  2306.44
                             2333.30  2337.27  2353.76  2356.50  2368.14
                             2388.83  2401.88  2554.73  4391.69  4399.51
                             4453.00  4486.03  4535.42  4540.78  4574.69
                             4575.33  4582.29  4584.56  4590.77  4592.52
                             4594.96  4603.78  4607.89  4611.02  4615.10
                             4621.89  4630.96  4674.49

 Zero-point correction=                           0.409878 (Hartree/Particle)
 Thermal correction to Energy=                    0.436469
 Thermal correction to Enthalpy=                  0.437413
 Thermal correction to Gibbs Free Energy=         0.347362
 Sum of electronic and zero-point Energies=          -1811.661391
 Sum of electronic and thermal Energies=             -1811.634800
 Sum of electronic and thermal Enthalpies=           -1811.633856
 Sum of electronic and thermal Free Energies=        -1811.723907

                     E (Thermal)             CV                S
                      KCal/Mol        Cal/Mol-Kelvin    Cal/Mol-Kelvin
 Total                  273.888            104.037            189.528
 Electronic               0.000              0.000              0.000
 Translational            0.889              2.981             44.222
 Rotational               0.889              2.981             37.996
 Vibrational            272.111             98.075            107.310
 Vibration     1          0.593              1.987              7.636
 Vibration     2          0.593              1.986              7.285
 Vibration     3          0.593              1.986              6.803
 Vibration     4          0.593              1.985              6.418
 Vibration     5          0.593              1.985              6.111
 Vibration     6          0.595              1.980              5.143
 Vibration     7          0.596              1.976              4.684
 Vibration     8          0.598              1.970              4.217
 Vibration     9          0.598              1.968              4.136
 Vibration    10          0.600              1.961              3.826
 Vibration    11          0.604              1.950              3.469
 Vibration    12          0.608              1.935              3.150
 Vibration    13          0.618              1.902              2.662
 Vibration    14          0.620              1.897              2.613
 Vibration    15          0.628              1.871              2.364
 Vibration    16          0.640              1.832              2.086
 Vibration    17          0.644              1.819              2.008
 Vibration    18          0.652              1.796              1.882
 Vibration    19          0.653              1.794              1.872
 Vibration    20          0.657              1.779              1.800
 Vibration    21          0.670              1.740              1.640
 Vibration    22          0.695              1.667              1.399
 Vibration    23          0.716              1.605              1.236
 Vibration    24          0.726              1.579              1.174
 Vibration    25          0.732              1.562              1.137
 Vibration    26          0.755              1.499              1.013
 Vibration    27          0.777              1.441              0.914
 Vibration    28          0.781              1.432              0.900
 Vibration    29          0.784              1.425              0.889
 Vibration    30          0.792              1.402              0.855
 Vibration    31          0.799              1.385              0.829
 Vibration    32          0.804              1.373              0.812
 Vibration    33          0.809              1.361              0.796
 Vibration    34          0.833              1.302              0.719
 Vibration    35          0.875              1.205              0.610
 Vibration    36          0.886              1.181              0.584
 Vibration    37          0.893              1.167              0.570
 Vibration    38          0.922              1.105              0.512
 Vibration    39          0.931              1.086              0.495
 Vibration    40          0.940              1.067              0.479
 Vibration    41          0.945              1.057              0.471
 Vibration    42          0.967              1.015              0.436

 Optimization completed.
    -- Stationary point found.
 Normal termination of Gaussian 09 at Tue Sep  6 02:49:20 2022.
