 Gaussian 09, Revision C.01,
 Gaussian 09:  EM64L-G09RevC.01 23-Sep-2011

 -------------------------
 #p opt freq b3lyp/cc-pvdz
 -------------------------

 (Enter /opt/gaussian/l101.exe)
 ---------
 Mol24.log
 ---------
 Charge =  0 Multiplicity = 1

 SCF Done:  E(RB3LYP) =  -1277.40188085     A.U. after   16 cycles
 SCF Done:  E(RB3LYP) =  -1277.41162263     A.U. after   13 cycles
 SCF Done:  E(RB3LYP) =  -1277.41196557     A.U. after   13 cycles
 SCF Done:  E(RB3LYP) =  -1277.41207037     A.U. after   13 cycles
 SCF Done:  E(RB3LYP) =  -1277.41217759     A.U. after   13 cycles
 SCF Done:  E(RB3LYP) =  -1277.41224504     A.U. after   10 cycles
 SCF Done:  E(RB3LYP) =  -1277.41226554     A.U. after   11 cycles
 SCF Done:  E(RB3LYP) =  -1277.41227131     A.U. after   10 cycles
 SCF Done:  E(RB3LYP) =  -1277.41227437     A.U. after   10 cycles
 SCF Done:  E(RB3LYP) =  -1277.41227519     A.U. after    8 cycles
 SCF Done:  E(RB3LYP) =  -1277.41227537     A.U. after    8 cycles
 SCF Done:  E(RB3LYP) =  -1277.41227548     A.U. after    7 cycles
 SCF Done:  E(RB3LYP) =  -1277.41227553     A.U. after    7 cycles
 Optimization completed.
    -- Stationary point found.
 Normal termination of Gaussian 09 at Sun Sep  4 19:34:23 2022.

 -------------------------------------------------------------------
 #P Geom=AllCheck Guess=TCheck SCRF=Check GenChk RB3LYP/CC-pVDZ Freq
 -------------------------------------------------------------------

 Structure from the checkpoint file:  /home/scr/lqcapf-6/Gau-216908.chk
 ---------
 Mol24.log
 ---------
 Charge =  0 Multiplicity = 1

                         Standard orientation:
 ---------------------------------------------------------------------
 Center     Atomic      Atomic             Coordinates (Angstroms)
 Number     Number       Type             X           Y           Z
 ---------------------------------------------------------------------
      1          8           0        1.046304   -0.558920    2.119081
      2          6           0        1.433467    0.290213    1.325915
      3          6           0        2.906187    0.742885    1.388625
      4          7           0        3.730189    0.065027    0.403324
      5          7           0        4.367821    0.779369   -0.573657
      6          7           0        5.057237   -0.021677   -1.313718
      7          6           0        4.893225   -1.306805   -0.834836
      8          6           0        5.431480   -2.529507   -1.276229
      9          6           0        5.075025   -3.672218   -0.574264
     10          6           0        4.198660   -3.614843    0.540860
     11          6           0        3.654019   -2.419212    0.992227
     12          6           0        4.028239   -1.266373    0.279656
     13          7           0        0.629667    0.834388    0.349182
     14          6           0        1.066618    1.913488   -0.561814
     15          6           0        0.782330    3.318297   -0.037712
     16          6           0        1.145763    4.514855   -0.962793
     17          6           0       -0.143183    5.231802   -0.476202
     18          6           0       -0.677595    3.858777    0.013651
     19          6           0       -0.730881    0.376717    0.246371
     20          6           0       -1.606025    0.451354    1.337449
     21          6           0       -2.924065    0.017677    1.210270
     22          6           0       -3.411604   -0.499271   -0.004578
     23          6           0       -2.519767   -0.575298   -1.088900
     24          6           0       -1.196482   -0.152022   -0.963586
     25          6           0       -4.818536   -0.952466   -0.135042
     26          6           0       -5.882094   -0.269187    0.477406
     27          6           0       -7.183245   -0.742513    0.317081
     28          6           0       -7.389052   -1.887588   -0.456891
     29          7           0       -6.395241   -2.565164   -1.047690
     30          6           0       -5.152690   -2.101082   -0.879330
     31          1           0        3.052287    1.817832    1.229960
     32          1           0        3.251669    0.479938    2.398032
     33          1           0        6.100775   -2.562006   -2.137145
     34          1           0        5.470673   -4.641620   -0.884205
     35          1           0        3.940127   -4.542703    1.055880
     36          1           0        2.959159   -2.370732    1.831053
     37          1           0        2.136930    1.799109   -0.781045
     38          1           0        0.543379    1.768763   -1.518679
     39          1           0        1.263452    3.447119    0.947776
     40          1           0        2.113360    5.012487   -0.799311
     41          1           0        1.075472    4.231375   -2.026226
     42          1           0        0.063233    5.913603    0.363704
     43          1           0       -0.739122    5.772571   -1.226231
     44          1           0       -1.309376    3.372682   -0.747110
     45          1           0       -1.206115    3.821745    0.977674
     46          1           0       -1.246809    0.833848    2.292215
     47          1           0       -3.581873    0.061657    2.080761
     48          1           0       -2.866127   -0.958423   -2.050602
     49          1           0       -0.519425   -0.236783   -1.815859
     50          1           0       -5.691706    0.638070    1.055327
     51          1           0       -8.029078   -0.226210    0.775759
     52          1           0       -8.399536   -2.280888   -0.610237
     53          1           0       -4.358260   -2.689751   -1.350230
 ---------------------------------------------------------------------

 SCF Done:  E(RB3LYP) =  -1277.41227553     A.U. after    1 cycles

 The electronic state is 1-A.
 Alpha  occ. eigenvalues --  -19.12271 -14.42031 -14.39839 -14.38039 -14.35530
 Alpha  occ. eigenvalues --  -14.33029 -10.30421 -10.25599 -10.24113 -10.23653
 Alpha  occ. eigenvalues --  -10.23557 -10.22679 -10.22640 -10.21728 -10.21373
 Alpha  occ. eigenvalues --  -10.21339 -10.21319 -10.20612 -10.20513 -10.20490
 Alpha  occ. eigenvalues --  -10.20480 -10.20430 -10.20403 -10.20351 -10.20344
 Alpha  occ. eigenvalues --  -10.20344 -10.19921 -10.19453 -10.19324 -10.19306
 Alpha  occ. eigenvalues --   -1.10094  -1.05337  -0.95756  -0.94598  -0.93016
 Alpha  occ. eigenvalues --   -0.87213  -0.86861  -0.85601  -0.81860  -0.78702
 Alpha  occ. eigenvalues --   -0.78025  -0.77184  -0.76279  -0.75158  -0.74644
 Alpha  occ. eigenvalues --   -0.72652  -0.66755  -0.65811  -0.65323  -0.64714
 Alpha  occ. eigenvalues --   -0.63877  -0.62876  -0.61659  -0.61337  -0.59594
 Alpha  occ. eigenvalues --   -0.57058  -0.55804  -0.54041  -0.53536  -0.53074
 Alpha  occ. eigenvalues --   -0.51562  -0.50886  -0.49900  -0.49367  -0.48608
 Alpha  occ. eigenvalues --   -0.48129  -0.47605  -0.47019  -0.46207  -0.45432
 Alpha  occ. eigenvalues --   -0.45272  -0.44759  -0.44498  -0.43416  -0.42824
 Alpha  occ. eigenvalues --   -0.42500  -0.42076  -0.40821  -0.40650  -0.40104
 Alpha  occ. eigenvalues --   -0.39424  -0.39101  -0.38207  -0.37979  -0.37810
 Alpha  occ. eigenvalues --   -0.36791  -0.36708  -0.36146  -0.35895  -0.35286
 Alpha  occ. eigenvalues --   -0.33861  -0.33233  -0.32106  -0.31911  -0.31533
 Alpha  occ. eigenvalues --   -0.30468  -0.28606  -0.27730  -0.27108  -0.26531
 Alpha  occ. eigenvalues --   -0.26290  -0.25920  -0.25542  -0.23889  -0.23144
 Alpha virt. eigenvalues --   -0.05051  -0.04882  -0.03087  -0.02181  -0.00969
 Alpha virt. eigenvalues --    0.00188   0.01184   0.02973   0.04062   0.05673
 Alpha virt. eigenvalues --    0.05997   0.06400   0.06729   0.07532   0.08092

 Mulliken atomic charges:
              1
     1  O   -0.263492
     2  C    0.126835
     3  C    0.167710
     4  N   -0.245171
     5  N   -0.060152
     6  N   -0.180078
     7  C    0.009904
     8  C    0.043088
     9  C    0.039434
    10  C    0.043581
    11  C    0.030630
    12  C    0.183844
    13  N   -0.270578
    14  C    0.131435
    15  C   -0.110122
    16  C    0.039108
    17  C   -0.013423
    18  C    0.041007
    19  C    0.076855
    20  C    0.095515
    21  C    0.016724
    22  C    0.033806
    23  C    0.022784
    24  C    0.061165
    25  C   -0.044808
    26  C    0.075514
    27  C   -0.008296
    28  C    0.105416
    29  N   -0.173216
    30  C    0.099804
    31  H    0.042460
    32  H    0.044679
    33  H   -0.021194
    34  H   -0.024679
    35  H   -0.020356
    36  H   -0.007249
    37  H    0.043826
    38  H    0.010538
    39  H   -0.021042
    40  H    0.012997
    41  H    0.008097
    42  H    0.012635
    43  H    0.006069
    44  H    0.011756
    45  H    0.007120
    46  H   -0.029428
    47  H   -0.033588
    48  H   -0.031643
    49  H   -0.023198
    50  H   -0.027877
    51  H   -0.023230
    52  H   -0.003283
    53  H   -0.008233
 Sum of Mulliken atomic charges =   0.00000

 Dipole moment (field-independent basis, Debye):
    X=             -1.4791    Y=              2.4360    Z=              1.3157  Tot=              3.1390
 Quadrupole moment (field-independent basis, Debye-Ang):
   XX=           -181.4220   YY=           -169.8924   ZZ=           -174.8722
   XY=            -17.2850   XZ=             -0.9035   YZ=              4.4479

  Exact polarizability: 378.881   9.190 291.222 -25.433  16.382 223.167
 Approx polarizability: 503.186  23.922 461.680 -60.244  32.317 424.422

                     1                      2                      3
                     A                      A                      A
 Frequencies --    13.4788                17.7773                28.4298
 Red. masses --     6.4241                 5.1812                 5.5580
 Frc consts  --     0.0007                 0.0010                 0.0026
 IR Inten    --     0.0448                 1.0343                 0.4321

                     4                      5                      6
                     A                      A                      A
 Frequencies --    30.5734                40.7834                45.4424
 Red. masses --     4.1648                 5.3989                 3.8796
 Frc consts  --     0.0023                 0.0053                 0.0047
 IR Inten    --     0.7027                 1.4682                 1.6087

                     7                      8                      9
                     A                      A                      A
 Frequencies --    61.6826                68.7163                73.9202
 Red. masses --     3.3022                 5.4781                 3.9265
 Frc consts  --     0.0074                 0.0152                 0.0126
 IR Inten    --     0.2062                 2.4945                 0.4457

                    10                     11                     12
                     A                      A                      A
 Frequencies --    84.4488               103.5989               122.5878
 Red. masses --     7.2306                 5.0960                 3.9824
 Frc consts  --     0.0304                 0.0322                 0.0353
 IR Inten    --     2.9903                 4.5081                 3.9715

                    13                     14                     15
                     A                      A                      A
 Frequencies --   136.5203               145.8100               187.2841
 Red. masses --     3.3805                 3.7111                 4.4790
 Frc consts  --     0.0371                 0.0465                 0.0926
 IR Inten    --     0.7960                 0.4921                 0.3921

                    16                     17                     18
                     A                      A                      A
 Frequencies --   220.4922               229.6017               239.4054
 Red. masses --     4.0369                 5.5856                 5.4356
 Frc consts  --     0.1156                 0.1735                 0.1836
 IR Inten    --     0.2899                 0.4377                 0.3023

                    19                     20                     21
                     A                      A                      A
 Frequencies --   244.2500               301.1771               319.1923
 Red. masses --     4.0941                 5.3829                 3.5968
 Frc consts  --     0.1439                 0.2877                 0.2159
 IR Inten    --     4.4569                 1.2212                 0.1837

                    22                     23                     24
                     A                      A                      A
 Frequencies --   343.2728               366.4058               401.1225
 Red. masses --     3.8206                 5.0917                 3.6585
 Frc consts  --     0.2653                 0.4028                 0.3468
 IR Inten    --     2.6423                 8.4803                 2.3503

                    25                     26                     27
                     A                      A                      A
 Frequencies --   412.5566               419.8984               420.5836
 Red. masses --     3.2356                 3.0092                 3.0498
 Frc consts  --     0.3245                 0.3126                 0.3179
 IR Inten    --     2.5602                 1.4465                 2.7712

                    28                     29                     30
                     A                      A                      A
 Frequencies --   436.0238               447.1462               457.9217
 Red. masses --     2.2456                 3.0356                 5.4875
 Frc consts  --     0.2515                 0.3576                 0.6780
 IR Inten    --     0.2844                 3.0115                 4.4279

                    31                     32                     33
                     A                      A                      A
 Frequencies --   479.1113               520.6127               528.6630
 Red. masses --     4.2248                 4.8530                 5.4010
 Frc consts  --     0.5714                 0.7750                 0.8894
 IR Inten    --     1.0308                 3.9621                 1.5368

                    34                     35                     36
                     A                      A                      A
 Frequencies --   556.8430               580.1171               584.5549
 Red. masses --     4.1893                 2.9419                 3.8382
 Frc consts  --     0.7653                 0.5833                 0.7727
 IR Inten    --     5.7398                 4.7375                 0.4969

                    37                     38                     39
                     A                      A                      A
 Frequencies --   596.7623               626.3717               635.8082
 Red. masses --     5.8808                 5.8155                 2.6897
 Frc consts  --     1.2339                 1.3443                 0.6406
 IR Inten    --     8.4138                11.8080                 3.9399

                    40                     41                     42
                     A                      A                      A
 Frequencies --   643.4818               656.9961               670.8174
 Red. masses --     4.0311                 4.9159                 8.3372
 Frc consts  --     0.9834                 1.2502                 2.2104
 IR Inten    --     6.8878                 4.0705                 3.3681

                    43                     44                     45
                     A                      A                      A
 Frequencies --   703.5577               718.2887               731.4627
 Red. masses --     5.3147                 5.5782                 1.9794
 Frc consts  --     1.5500                 1.6957                 0.6240
 IR Inten    --    14.3727                17.3740                18.6216

                    46                     47                     48
                     A                      A                      A
 Frequencies --   756.5391               763.8090               769.3660
 Red. masses --     3.1893                 1.5947                 1.4656
 Frc consts  --     1.0755                 0.5481                 0.5111
 IR Inten    --     6.1917                 3.4514                45.5127

                    49                     50                     51
                     A                      A                      A
 Frequencies --   784.0131               790.2726               793.4174
 Red. masses --     2.8431                 2.2481                 2.8252
 Frc consts  --     1.0296                 0.8272                 1.0478
 IR Inten    --     2.7966                11.2581                14.0150

                    52                     53                     54
                     A                      A                      A
 Frequencies --   796.0212               823.5274               828.7597
 Red. masses --     3.3167                 1.7313                 5.0140
 Frc consts  --     1.2382                 0.6918                 2.0290
 IR Inten    --     4.9039                16.6173                 5.0325

                    55                     56                     57
                     A                      A                      A
 Frequencies --   842.5166               860.3769               865.8364
 Red. masses --     1.2896                 2.0522                 1.7243
 Frc consts  --     0.5393                 0.8951                 0.7616
 IR Inten    --     0.8713                 7.6889                13.7983

                    58                     59                     60
                     A                      A                      A
 Frequencies --   884.2221               894.8697               917.7211
 Red. masses --     1.4751                 2.3608                 3.1938
 Frc consts  --     0.6795                 1.1139                 1.5848
 IR Inten    --     1.2076                 1.4601                 5.1734

                    61                     62                     63
                     A                      A                      A
 Frequencies --   927.8316               938.4075               948.1492
 Red. masses --     3.4940                 2.2785                 1.3445
 Frc consts  --     1.7722                 1.1822                 0.7121
 IR Inten    --     0.5811                 1.8679                 0.8496

                    64                     65                     66
                     A                      A                      A
 Frequencies --   959.7300               967.5992               972.0857
 Red. masses --     2.1185                 1.3527                 1.3485
 Frc consts  --     1.1497                 0.7462                 0.7508
 IR Inten    --    40.9571                 0.6463                 4.8000

                    67                     68                     69
                     A                      A                      A
 Frequencies --   973.2681               976.8816               979.5967
 Red. masses --     1.5143                 1.5941                 1.9420
 Frc consts  --     0.8451                 0.8963                 1.0980
 IR Inten    --     7.7300                 0.7142                 0.6656

                    70                     71                     72
                     A                      A                      A
 Frequencies --   980.6062              1004.7525              1006.1072
 Red. masses --     1.3976                 1.3869                 1.2879
 Frc consts  --     0.7918                 0.8249                 0.7681
 IR Inten    --     1.3350                 0.9654                 0.6809

                    73                     74                     75
                     A                      A                      A
 Frequencies --  1017.1689              1024.3267              1032.7851
 Red. masses --     6.0187                 1.9926                 3.0401
 Frc consts  --     3.6689                 1.2318                 1.9105
 IR Inten    --    23.3760                14.1814                 6.0262

                    76                     77                     78
                     A                      A                      A
 Frequencies --  1045.8957              1062.4666              1078.5674
 Red. masses --     3.9537                 2.4016                 1.9836
 Frc consts  --     2.5482                 1.5973                 1.3596
 IR Inten    --     0.7238                 8.1496                 0.6200

                    79                     80                     81
                     A                      A                      A
 Frequencies --  1083.7528              1113.2759              1123.9493
 Red. masses --     2.3266                 2.7759                 2.7850
 Frc consts  --     1.6100                 2.0270                 2.0729
 IR Inten    --    36.5143                 0.1512                 1.7721

                    82                     83                     84
                     A                      A                      A
 Frequencies --  1130.2021              1136.7608              1141.2000
 Red. masses --     1.4866                 1.3699                 1.4769
 Frc consts  --     1.1188                 1.0430                 1.1333
 IR Inten    --     6.6864                 6.4060                 6.8095

                    85                     86                     87
                     A                      A                      A
 Frequencies --  1146.9289              1154.6574              1176.6805
 Red. masses --     2.6136                 2.1436                 1.4142
 Frc consts  --     2.0257                 1.6839                 1.1536
 IR Inten    --    16.2571                43.1660                 9.3190

                    88                     89                     90
                     A                      A                      A
 Frequencies --  1193.5128              1197.3357              1218.4011
 Red. masses --     1.3442                 1.1503                 1.4021
 Frc consts  --     1.1282                 0.9717                 1.2263
 IR Inten    --     1.7763                 3.0942                55.4296

                    91                     92                     93
                     A                      A                      A
 Frequencies --  1219.9637              1245.0823              1248.3134
 Red. masses --     1.4496                 1.3361                 1.3597
 Frc consts  --     1.2712                 1.2203                 1.2484
 IR Inten    --     4.3476                 1.4142                19.0037

                    94                     95                     96
                     A                      A                      A
 Frequencies --  1252.8307              1267.8002              1268.8790
 Red. masses --     1.5775                 2.0194                 1.5213
 Frc consts  --     1.4589                 1.9124                 1.4432
 IR Inten    --    22.2651                30.2066                10.4286

                    97                     98                     99
                     A                      A                      A
 Frequencies --  1273.1779              1284.6034              1291.4886
 Red. masses --     2.5981                 1.9967                 3.3962
 Frc consts  --     2.4813                 1.9414                 3.3375
 IR Inten    --    12.2932                19.7312                 2.9215

                   100                    101                    102
                     A                      A                      A
 Frequencies --  1302.8642              1311.0663              1319.2591
 Red. masses --     1.5543                 2.4229                 1.6916
 Frc consts  --     1.5544                 2.4538                 1.7346
 IR Inten    --    37.6249                 3.6164                17.5094

                   103                    104                    105
                     A                      A                      A
 Frequencies --  1321.3906              1330.6851              1345.5728
 Red. masses --     1.7824                 3.8154                 1.5867
 Frc consts  --     1.8337                 3.9806                 1.6926
 IR Inten    --    10.2650                 2.9205                21.8095

                   106                    107                    108
                     A                      A                      A
 Frequencies --  1356.6546              1362.2924              1369.0522
 Red. masses --     1.5856                 1.4126                 3.7144
 Frc consts  --     1.7194                 1.5446                 4.1019
 IR Inten    --     2.8176                13.7078                15.7134

                   109                    110                    111
                     A                      A                      A
 Frequencies --  1393.8352              1418.1215              1422.7425
 Red. masses --     1.4463                 2.9086                 2.6963
 Frc consts  --     1.6555                 3.4463                 3.2157
 IR Inten    --    26.2470                19.6744                17.9956

                   112                    113                    114
                     A                      A                      A
 Frequencies --  1430.6186              1437.6268              1449.6007
 Red. masses --     7.4505                 2.7221                 1.0991
 Frc consts  --     8.9843                 3.3147                 1.3608
 IR Inten    --     1.8547               228.3443                 2.5229

                   115                    116                    117
                     A                      A                      A
 Frequencies --  1451.8296              1456.5834              1457.8062
 Red. masses --     1.1507                 1.5773                 1.5875
 Frc consts  --     1.4290                 1.9716                 1.9877
 IR Inten    --    28.0102                 3.1847                 3.5589

                   118                    119                    120
                     A                      A                      A
 Frequencies --  1482.9177              1487.2381              1490.3503
 Red. masses --     1.1664                 2.6230                 1.1838
 Frc consts  --     1.5113                 3.4182                 1.5492
 IR Inten    --     2.0983                20.2356                10.3824

                   121                    122                    123
                     A                      A                      A
 Frequencies --  1502.8352              1526.7030              1546.3663
 Red. masses --     2.3014                 3.5846                 2.9334
 Frc consts  --     3.0625                 4.9227                 4.1329
 IR Inten    --    54.5471                11.3764                50.7374

                   124                    125                    126
                     A                      A                      A
 Frequencies --  1604.0972              1623.0264              1634.6199
 Red. masses --     5.5639                 6.8001                 7.4466
 Frc consts  --     8.4351                10.5540                11.7231
 IR Inten    --     6.7523                 2.4258                 3.3513

                   127                    128                    129
                     A                      A                      A
 Frequencies --  1637.9553              1658.9011              1665.2803
 Red. masses --     6.2380                 6.3188                 7.2618
 Frc consts  --     9.8605                10.2453                11.8650
 IR Inten    --     2.0673                13.0514                12.0063

                   130                    131                    132
                     A                      A                      A
 Frequencies --  1741.8029              3024.6747              3041.0887
 Red. masses --    11.0380                 1.0842                 1.0603
 Frc consts  --    19.7304                 5.8439                 5.7773
 IR Inten    --   273.4386                19.3341                34.8630

                   133                    134                    135
                     A                      A                      A
 Frequencies --  3049.2835              3054.1168              3070.0679
 Red. masses --     1.0580                 1.0639                 1.0636
 Frc consts  --     5.7960                 5.8466                 5.9062
 IR Inten    --    41.9530                28.5182                18.4309

                   136                    137                    138
                     A                      A                      A
 Frequencies --  3081.9362              3095.7039              3103.3404
 Red. masses --     1.0619                 1.1056                 1.1071
 Frc consts  --     5.9428                 6.2428                 6.2821
 IR Inten    --    13.9675                11.9135                20.9132

                   139                    140                    141
                     A                      A                      A
 Frequencies --  3115.5988              3120.7264              3148.5118
 Red. masses --     1.1076                 1.1031                 1.1050
 Frc consts  --     6.3346                 6.3294                 6.4538
 IR Inten    --    46.5878                10.8419                 3.7883

                   142                    143                    144
                     A                      A                      A
 Frequencies --  3151.8040              3155.6353              3180.8983
 Red. masses --     1.0885                 1.0911                 1.0890
 Frc consts  --     6.3709                 6.4017                 6.4921
 IR Inten    --    27.0885                 7.5147                19.3126

                   145                    146                    147
                     A                      A                      A
 Frequencies --  3181.1481              3183.6773              3187.0423
 Red. masses --     1.0863                 1.0875                 1.0890
 Frc consts  --     6.4769                 6.4941                 6.5173
 IR Inten    --     3.9989                 9.3103                 2.7287

                   148                    149                    150
                     A                      A                      A
 Frequencies --  3195.3268              3199.8151              3200.2696
 Red. masses --     1.0908                 1.0964                 1.0964
 Frc consts  --     6.5621                 6.6143                 6.6157
 IR Inten    --    10.7547                17.8415                 4.5553

                   151                    152                    153
                     A                      A                      A
 Frequencies --  3211.2052              3218.2435              3220.4578
 Red. masses --     1.0958                 1.0960                 1.0941
 Frc consts  --     6.6579                 6.6881                 6.6859
 IR Inten    --     8.9809                 4.1847                 3.9901

 - Thermochemistry -
 -------------------
 Temperature   298.150 Kelvin.  Pressure   1.00000 Atm.
 Atom     1 has atomic number  8 and mass  15.99491

 Molecular mass:   397.19026 amu.
 Principal axes and moments of inertia in atomic units:
                           1         2         3
     Eigenvalues --  8113.10125********************
           X            0.99999  -0.00405  -0.00101
           Y            0.00405   0.99999  -0.00216
           Z            0.00102   0.00215   1.00000
 This molecule is an asymmetric top.
 Rotational symmetry number  1.
 Warning -- assumption of classical behavior for rotation
           may cause significant error
 Rotational temperatures (Kelvin)      0.01068     0.00375     0.00303
 Rotational constants (GHZ):           0.22245     0.07822     0.06309
 Zero-point vibrational energy    1129395.1 (Joules/Mol)
                                  269.93190 (Kcal/Mol)
 Warning -- explicit consideration of  37 degrees of freedom as
           vibrations may cause significant error
 Vibrational temperatures:     19.39    25.58    40.90    43.99    58.68
          (Kelvin)             65.38    88.75    98.87   106.35   121.50
                              149.06   176.38   196.42   209.79   269.46
                              317.24   330.35   344.45   351.42   433.33
                              459.25   493.89   527.18   577.13   593.58
                              604.14   605.13   627.34   643.34   658.85
                              689.33   749.04   760.63   801.17   834.66
                              841.04   858.61   901.21   914.79   925.83
                              945.27   965.16  1012.26  1033.46  1052.41
                             1088.49  1098.95  1106.94  1128.02  1137.02
                             1141.55  1145.30  1184.87  1192.40  1212.19
                             1237.89  1245.74  1272.20  1287.52  1320.39
                             1334.94  1350.16  1364.17  1380.84  1392.16
                             1398.61  1400.31  1405.51  1409.42  1410.87
                             1445.61  1447.56  1463.48  1473.78  1485.95
                             1504.81  1528.65  1551.82  1559.28  1601.75
                             1617.11  1626.11  1635.54  1641.93  1650.17
                             1661.29  1692.98  1717.20  1722.70  1753.01
                             1755.25  1791.39  1796.04  1802.54  1824.08
                             1825.63  1831.82  1848.26  1858.16  1874.53
                             1886.33  1898.12  1901.18  1914.56  1935.98
                             1951.92  1960.03  1969.76  2005.42  2040.36
                             2047.01  2058.34  2068.42  2085.65  2088.86
                             2095.70  2097.46  2133.59  2139.80  2144.28
                             2162.24  2196.58  2224.87  2307.94  2335.17
                             2351.85  2356.65  2386.79  2395.96  2506.06
                             4351.83  4375.44  4387.23  4394.19  4417.14
                             4434.21  4454.02  4465.01  4482.65  4490.02
                             4530.00  4534.74  4540.25  4576.60  4576.96
                             4580.60  4585.44  4597.36  4603.81  4604.47
                             4620.20  4630.33  4633.51

 Zero-point correction=                           0.430164 (Hartree/Particle)
 Thermal correction to Energy=                    0.454973
 Thermal correction to Enthalpy=                  0.455917
 Thermal correction to Gibbs Free Energy=         0.370969
 Sum of electronic and zero-point Energies=          -1276.982112
 Sum of electronic and thermal Energies=             -1276.957303
 Sum of electronic and thermal Enthalpies=           -1276.956358
 Sum of electronic and thermal Free Energies=        -1277.041307

                     E (Thermal)             CV                S
                      KCal/Mol        Cal/Mol-Kelvin    Cal/Mol-Kelvin
 Total                  285.500             97.143            178.789
 Electronic               0.000              0.000              0.000
 Translational            0.889              2.981             43.829
 Rotational               0.889              2.981             36.925
 Vibrational            283.722             91.181             98.035
 Vibration     1          0.593              1.987              7.418
 Vibration     2          0.593              1.986              6.868
 Vibration     3          0.593              1.984              5.936
 Vibration     4          0.594              1.984              5.792
 Vibration     5          0.594              1.981              5.221
 Vibration     6          0.595              1.979              5.006
 Vibration     7          0.597              1.973              4.403
 Vibration     8          0.598              1.969              4.190
 Vibration     9          0.599              1.966              4.046
 Vibration    10          0.601              1.960              3.785
 Vibration    11          0.605              1.946              3.385
 Vibration    12          0.610              1.930              3.059
 Vibration    13          0.614              1.917              2.852
 Vibration    14          0.617              1.907              2.726
 Vibration    15          0.632              1.857              2.255
 Vibration    16          0.647              1.810              1.955
 Vibration    17          0.652              1.796              1.882
 Vibration    18          0.657              1.780              1.807
 Vibration    19          0.660              1.772              1.772
 Vibration    20          0.693              1.671              1.410
 Vibration    21          0.705              1.637              1.314
 Vibration    22          0.722              1.589              1.197
 Vibration    23          0.739              1.541              1.095
 Vibration    24          0.767              1.468              0.959
 Vibration    25          0.776              1.443              0.918
 Vibration    26          0.783              1.427              0.892
 Vibration    27          0.783              1.426              0.890
 Vibration    28          0.796              1.392              0.839
 Vibration    29          0.806              1.367              0.804
 Vibration    30          0.816              1.343              0.772
 Vibration    31          0.836              1.296              0.712
 Vibration    32          0.876              1.204              0.609
 Vibration    33          0.884              1.187              0.590
 Vibration    34          0.912              1.125              0.530
 Vibration    35          0.937              1.074              0.485
 Vibration    36          0.942              1.065              0.477
 Vibration    37          0.955              1.039              0.455

 Optimization completed.
    -- Stationary point found.
 Normal termination of Gaussian 09 at Sun Sep  4 22:09:28 2022.
