 Gaussian 09, Revision C.01,
 Gaussian 09:  EM64L-G09RevC.01 23-Sep-2011

 -------------------------
 #p opt freq b3lyp/cc-pvdz
 -------------------------

 (Enter /opt/gaussian/l101.exe)
 ---------
 Mol21.log
 ---------
 Charge =  0 Multiplicity = 1

 SCF Done:  E(RB3LYP) =  -1651.15104964     A.U. after   15 cycles
 SCF Done:  E(RB3LYP) =  -1651.16236677     A.U. after   13 cycles
 SCF Done:  E(RB3LYP) =  -1651.16319729     A.U. after   13 cycles
 SCF Done:  E(RB3LYP) =  -1651.16341612     A.U. after   13 cycles
 SCF Done:  E(RB3LYP) =  -1651.16335687     A.U. after   13 cycles
 SCF Done:  E(RB3LYP) =  -1651.16361037     A.U. after   12 cycles
 SCF Done:  E(RB3LYP) =  -1651.16364314     A.U. after   11 cycles
 SCF Done:  E(RB3LYP) =  -1651.16367592     A.U. after   11 cycles
 SCF Done:  E(RB3LYP) =  -1651.16368308     A.U. after   10 cycles
 SCF Done:  E(RB3LYP) =  -1651.16368826     A.U. after   10 cycles
 SCF Done:  E(RB3LYP) =  -1651.16369213     A.U. after   10 cycles
 SCF Done:  E(RB3LYP) =  -1651.16369558     A.U. after   10 cycles
 SCF Done:  E(RB3LYP) =  -1651.16369832     A.U. after   11 cycles
 SCF Done:  E(RB3LYP) =  -1651.16369935     A.U. after    9 cycles
 SCF Done:  E(RB3LYP) =  -1651.16369985     A.U. after    9 cycles
 SCF Done:  E(RB3LYP) =  -1651.16370006     A.U. after    8 cycles
 SCF Done:  E(RB3LYP) =  -1651.16370025     A.U. after    8 cycles
 SCF Done:  E(RB3LYP) =  -1651.16370032     A.U. after    7 cycles
 Optimization completed.
    -- Stationary point found.
 Normal termination of Gaussian 09 at Sun Sep  4 04:19:15 2022.

 -------------------------------------------------------------------
 #P Geom=AllCheck Guess=TCheck SCRF=Check GenChk RB3LYP/CC-pVDZ Freq
 -------------------------------------------------------------------

 Structure from the checkpoint file:  /home/scr/lqcapf-6/Gau-195104.chk
 ---------
 Mol21.log
 ---------
 Charge =  0 Multiplicity = 1

                         Standard orientation:
 ---------------------------------------------------------------------
 Center     Atomic      Atomic             Coordinates (Angstroms)
 Number     Number       Type             X           Y           Z
 ---------------------------------------------------------------------
      1          8           0        0.830216   -1.442981   -0.101206
      2          6           0        0.934864   -0.377378   -0.680744
      3          6           0        2.314220    0.118637   -1.162403
      4          7           0        3.347875   -0.863055   -0.949858
      5          7           0        3.933130   -1.455110   -2.036304
      6          7           0        4.851802   -2.267649   -1.641739
      7          6           0        4.900302   -2.233402   -0.261415
      8          6           0        5.730490   -2.918184    0.643819
      9          6           0        5.549924   -2.662842    1.995712
     10          6           0        4.562016   -1.750958    2.448411
     11          6           0        3.729757   -1.070304    1.569178
     12          6           0        3.921922   -1.327330    0.201593
     13          7           0       -0.138258    0.461933   -0.948565
     14          6           0        0.061004    1.785049   -1.552280
     15          6           0        0.533102    2.873871   -0.609452
     16          6           0        0.972517    4.159562   -1.075046
     17          6           0        1.340138    5.001645   -0.060229
     18         16           0        1.163213    4.245626    1.493353
     19          6           0        0.584785    2.779481    0.760145
     20          6           0       -1.480867    0.064012   -0.620703
     21          6           0       -2.392189    1.012324   -0.129229
     22          6           0       -3.712397    0.654594    0.141829
     23          6           0       -4.165353   -0.659546   -0.057528
     24          6           0       -3.242498   -1.601787   -0.546015
     25          6           0       -1.924209   -1.252700   -0.826368
     26          6           0       -5.549835   -1.062883    0.225854
     27          6           0       -6.596982   -0.306260    0.725615
     28          7           0       -7.670187   -1.166985    0.801168
     29          6           0       -7.245483   -2.387492    0.354663
     30          7           0       -5.979829   -2.360495    0.001825
     31          1           0        2.306129    0.306032   -2.245175
     32          1           0        2.576077    1.062388   -0.657796
     33          1           0        6.483337   -3.619560    0.280996
     34          1           0        6.173725   -3.174232    2.731702
     35          1           0        4.447990   -1.586637    3.522275
     36          1           0        2.956791   -0.389731    1.926269
     37          1           0        0.767057    1.704166   -2.393815
     38          1           0       -0.897764    2.077833   -2.004956
     39          1           0        1.013209    4.440343   -2.128845
     40          1           0        1.711137    6.021988   -0.133324
     41          1           0        0.307691    1.930628    1.381819
     42          1           0       -2.072690    2.038736    0.056459
     43          1           0       -4.392227    1.419996    0.522685
     44          1           0       -3.583266   -2.624479   -0.709588
     45          1           0       -1.234598   -2.007079   -1.198260
     46          1           0       -6.677268    0.732759    1.027949
     47          1           0       -7.902518   -3.253651    0.310414
     48          1           0       -8.599048   -0.934794    1.129058
 ---------------------------------------------------------------------

 SCF Done:  E(RB3LYP) =  -1651.16370032     A.U. after    1 cycles

 The electronic state is 1-A.
 Alpha  occ. eigenvalues --  -88.92141 -19.12079 -14.40617 -14.39792 -14.38450
 Alpha  occ. eigenvalues --  -14.38160 -14.34233 -14.31428 -10.30228 -10.25433
 Alpha  occ. eigenvalues --  -10.25176 -10.24756 -10.23303 -10.23004 -10.22692
 Alpha  occ. eigenvalues --  -10.22617 -10.22312 -10.21780 -10.21095 -10.20939
 Alpha  occ. eigenvalues --  -10.20564 -10.19858 -10.19691 -10.19526 -10.19423
 Alpha  occ. eigenvalues --  -10.19374 -10.19288 -10.18976 -10.18693 -10.18308
 Alpha  occ. eigenvalues --   -7.98345  -5.94669  -5.94290  -5.93980  -1.08878
 Alpha  occ. eigenvalues --   -1.05291  -1.02234  -0.96032  -0.91910  -0.89528
 Alpha  occ. eigenvalues --   -0.88306  -0.85905  -0.85299  -0.78921  -0.77791
 Alpha  occ. eigenvalues --   -0.76949  -0.76163  -0.74839  -0.74316  -0.74171
 Alpha  occ. eigenvalues --   -0.72514  -0.69861  -0.65337  -0.64361  -0.62698
 Alpha  occ. eigenvalues --   -0.61759  -0.60719  -0.59891  -0.58400  -0.57809
 Alpha  occ. eigenvalues --   -0.56555  -0.56081  -0.55472  -0.53368  -0.52288
 Alpha  occ. eigenvalues --   -0.51881  -0.51241  -0.50323  -0.47535  -0.46968
 Alpha  occ. eigenvalues --   -0.46311  -0.46126  -0.45447  -0.44724  -0.44360
 Alpha  occ. eigenvalues --   -0.44125  -0.44074  -0.43800  -0.42864  -0.42618
 Alpha  occ. eigenvalues --   -0.42301  -0.41844  -0.41443  -0.40557  -0.39842
 Alpha  occ. eigenvalues --   -0.38872  -0.38365  -0.37247  -0.36997  -0.36575
 Alpha  occ. eigenvalues --   -0.36159  -0.35854  -0.35077  -0.34531  -0.32521
 Alpha  occ. eigenvalues --   -0.31161  -0.30594  -0.28298  -0.27629  -0.27032
 Alpha  occ. eigenvalues --   -0.26425  -0.26115  -0.25637  -0.25143  -0.25021
 Alpha  occ. eigenvalues --   -0.24406  -0.22922  -0.20640
 Alpha virt. eigenvalues --   -0.03677  -0.03161  -0.03027  -0.00875   0.01042
 Alpha virt. eigenvalues --    0.01467   0.01998   0.02453   0.02707   0.03886
 Alpha virt. eigenvalues --    0.04090   0.05246   0.06382   0.06702   0.07141

 Mulliken atomic charges:
              1
     1  O   -0.239788
     2  C    0.128836
     3  C    0.122459
     4  N   -0.227268
     5  N   -0.061879
     6  N   -0.183410
     7  C    0.010562
     8  C    0.043872
     9  C    0.037567
    10  C    0.038738
    11  C    0.034629
    12  C    0.212604
    13  N   -0.279305
    14  C    0.142816
    15  C   -0.024667
    16  C    0.047708
    17  C   -0.100552
    18  S    0.159171
    19  C   -0.149788
    20  C    0.090574
    21  C    0.028832
    22  C   -0.015711
    23  C    0.015356
    24  C    0.041751
    25  C    0.087782
    26  C    0.099921
    27  C   -0.003270
    28  N   -0.045153
    29  C    0.136772
    30  N   -0.218017
    31  H    0.059630
    32  H    0.059659
    33  H   -0.023720
    34  H   -0.028554
    35  H   -0.026681
    36  H   -0.031454
    37  H    0.036307
    38  H    0.048001
    39  H   -0.027503
    40  H    0.018455
    41  H    0.024489
    42  H   -0.027906
    43  H   -0.055201
    44  H   -0.031499
    45  H   -0.017035
    46  H   -0.005093
    47  H    0.004389
    48  H    0.092576
 Sum of Mulliken atomic charges =   0.00000

 Dipole moment (field-independent basis, Debye):
    X=             -6.3617    Y=              6.1492    Z=              2.3033  Tot=              9.1427
 Quadrupole moment (field-independent basis, Debye-Ang):
   XX=           -136.6238   YY=           -175.0405   ZZ=           -177.4116
   XY=              7.7938   XZ=              1.0500   YZ=            -10.7887

  Exact polarizability: 375.157  -1.163 286.316 -10.455   4.315 234.834
 Approx polarizability: 497.244 -29.005 470.620 -26.482  16.256 450.958

                     1                      2                      3
                     A                      A                      A
 Frequencies --    12.6698                20.7990                25.3307
 Red. masses --     6.4697                 6.7511                 5.6541
 Frc consts  --     0.0006                 0.0017                 0.0021
 IR Inten    --     1.3429                 0.9929                 1.4175

                     4                      5                      6
                     A                      A                      A
 Frequencies --    27.5253                31.2083                39.7656
 Red. masses --     6.6538                 5.0693                 4.9330
 Frc consts  --     0.0030                 0.0029                 0.0046
 IR Inten    --     0.5988                 0.6813                 3.4089

                     7                      8                      9
                     A                      A                      A
 Frequencies --    55.7440                60.7843                70.0502
 Red. masses --     6.9244                 4.7015                 5.7509
 Frc consts  --     0.0127                 0.0102                 0.0166
 IR Inten    --     0.4898                 0.2406                 2.4028

                    10                     11                     12
                     A                      A                      A
 Frequencies --    81.7451               109.1391               137.2460
 Red. masses --     6.8049                 6.3490                 5.7261
 Frc consts  --     0.0268                 0.0446                 0.0635
 IR Inten    --     3.0111                 0.7409                 5.4651

                    13                     14                     15
                     A                      A                      A
 Frequencies --   175.0524               183.4220               201.3592
 Red. masses --     6.1921                 6.6266                 6.2528
 Frc consts  --     0.1118                 0.1314                 0.1494
 IR Inten    --     1.6049                 1.4287                 1.1173

                    16                     17                     18
                     A                      A                      A
 Frequencies --   221.0459               232.0183               246.2668
 Red. masses --     4.9112                 5.9451                 3.7731
 Frc consts  --     0.1414                 0.1886                 0.1348
 IR Inten    --     4.0809                 0.2163                 0.5555

                    19                     20                     21
                     A                      A                      A
 Frequencies --   265.6114               298.6049               321.4935
 Red. masses --     4.4735                 4.7893                 3.3846
 Frc consts  --     0.1859                 0.2516                 0.2061
 IR Inten    --     8.0870                 1.1914                 4.3001

                    22                     23                     24
                     A                      A                      A
 Frequencies --   346.1204               398.8094               413.5636
 Red. masses --     7.5075                 7.2674                 6.4072
 Frc consts  --     0.5299                 0.6810                 0.6457
 IR Inten    --     1.5871                15.3111                 3.9169

                    25                     26                     27
                     A                      A                      A
 Frequencies --   417.3440               435.5088               439.7007
 Red. masses --     3.0655                 3.1572                 2.8896
 Frc consts  --     0.3146                 0.3528                 0.3292
 IR Inten    --     1.4301                 3.6500                 2.9853

                    28                     29                     30
                     A                      A                      A
 Frequencies --   458.6285               472.2382               477.4600
 Red. masses --     4.6848                 4.1046                 4.5263
 Frc consts  --     0.5806                 0.5393                 0.6080
 IR Inten    --     0.0512                 1.2722                 1.3237

                    31                     32                     33
                     A                      A                      A
 Frequencies --   518.5990               538.7042               544.6887
 Red. masses --     1.5484                 4.3750                 3.2717
 Frc consts  --     0.2453                 0.7480                 0.5719
 IR Inten    --    87.8623                 0.1942                 1.4382

                    34                     35                     36
                     A                      A                      A
 Frequencies --   571.1555               583.6184               587.4721
 Red. masses --     5.4352                 4.1204                 4.1751
 Frc consts  --     1.0447                 0.8269                 0.8490
 IR Inten    --     0.1396                 1.7156                 1.4333

                    37                     38                     39
                     A                      A                      A
 Frequencies --   603.2483               609.3427               646.5457
 Red. masses --     3.6436                 4.6298                 6.4947
 Frc consts  --     0.7812                 1.0128                 1.5996
 IR Inten    --     2.1478                22.9386                 0.3922

                    40                     41                     42
                     A                      A                      A
 Frequencies --   654.9334               660.8417               670.3242
 Red. masses --     1.8014                 6.2294                 7.0903
 Frc consts  --     0.4553                 1.6028                 1.8771
 IR Inten    --     3.1284                 0.4888                 4.0444

                    43                     44                     45
                     A                      A                      A
 Frequencies --   682.4710               691.2799               698.2931
 Red. masses --     5.9086                 5.1707                 1.2707
 Frc consts  --     1.6215                 1.4558                 0.3651
 IR Inten    --     2.0685                17.7980                 1.8468

                    46                     47                     48
                     A                      A                      A
 Frequencies --   704.0024               734.9193               759.5442
 Red. masses --     1.8217                 2.5787                 1.3838
 Frc consts  --     0.5320                 0.8206                 0.4704
 IR Inten    --     1.1365                19.0631                45.2388

                    49                     50                     51
                     A                      A                      A
 Frequencies --   774.0763               777.9779               785.2897
 Red. masses --     4.9305                 3.4328                 1.2795
 Frc consts  --     1.7406                 1.2242                 0.4649
 IR Inten    --    12.8050                 1.7330                37.3912

                    52                     53                     54
                     A                      A                      A
 Frequencies --   786.4673               794.2434               820.3533
 Red. masses --     3.3162                 4.9481                 1.3879
 Frc consts  --     1.2085                 1.8391                 0.5503
 IR Inten    --     2.9467                 4.0426                32.3261

                    55                     56                     57
                     A                      A                      A
 Frequencies --   832.5306               834.2383               840.0890
 Red. masses --     5.1478                 5.1253                 1.3214
 Frc consts  --     2.1022                 2.1016                 0.5494
 IR Inten    --    34.2020                26.5709                 0.7525

                    58                     59                     60
                     A                      A                      A
 Frequencies --   863.9441               865.7206               868.8633
 Red. masses --     1.7215                 2.8617                 2.7339
 Frc consts  --     0.7571                 1.2637                 1.2160
 IR Inten    --     2.2104                14.4900                 4.5742

                    61                     62                     63
                     A                      A                      A
 Frequencies --   880.6422               895.4896               923.9482
 Red. masses --     2.2840                 1.3464                 4.9061
 Frc consts  --     1.0436                 0.6361                 2.4676
 IR Inten    --    18.8502                 0.5710                 3.6544

                    64                     65                     66
                     A                      A                      A
 Frequencies --   938.4638               946.1759               951.8995
 Red. masses --     5.4880                 4.5229                 3.2797
 Frc consts  --     2.8477                 2.3857                 1.7509
 IR Inten    --    18.6675                 6.9550                 5.3738

                    67                     68                     69
                     A                      A                      A
 Frequencies --   957.8292               961.9493               965.1150
 Red. masses --     1.3731                 3.3462                 1.3494
 Frc consts  --     0.7422                 1.8243                 0.7405
 IR Inten    --     2.1085                75.4839                 0.4713

                    70                     71                     72
                     A                      A                      A
 Frequencies --   996.3805              1003.8207              1004.5980
 Red. masses --     1.2898                 2.1507                 1.4177
 Frc consts  --     0.7544                 1.2768                 0.8430
 IR Inten    --     0.0714                32.0444                 5.2752

                    73                     74                     75
                     A                      A                      A
 Frequencies --  1024.3173              1029.2618              1074.4178
 Red. masses --     2.0142                 2.8681                 1.7858
 Frc consts  --     1.2451                 1.7901                 1.2146
 IR Inten    --     9.8332                 1.5862                10.7927

                    76                     77                     78
                     A                      A                      A
 Frequencies --  1088.8753              1096.4249              1112.0143
 Red. masses --     1.1079                 3.2153                 1.6687
 Frc consts  --     0.7739                 2.2774                 1.2158
 IR Inten    --     7.1898                64.4790                49.6417

                    79                     80                     81
                     A                      A                      A
 Frequencies --  1125.2437              1127.7921              1133.3827
 Red. masses --     2.8062                 2.2120                 2.4879
 Frc consts  --     2.0934                 1.6577                 1.8829
 IR Inten    --    20.1622                13.8643                 6.7988

                    82                     83                     84
                     A                      A                      A
 Frequencies --  1145.3329              1146.0804              1163.2328
 Red. masses --     1.4207                 1.6310                 1.7263
 Frc consts  --     1.0980                 1.2622                 1.3762
 IR Inten    --     2.3916                 2.6356                13.0480

                    85                     86                     87
                     A                      A                      A
 Frequencies --  1177.2889              1204.5217              1214.6686
 Red. masses --     1.5576                 1.1505                 1.5029
 Frc consts  --     1.2719                 0.9835                 1.3064
 IR Inten    --     7.1993                17.7553                10.8230

                    88                     89                     90
                     A                      A                      A
 Frequencies --  1224.4453              1225.7852              1258.8642
 Red. masses --     1.5743                 1.4295                 3.2906
 Frc consts  --     1.3907                 1.2655                 3.0724
 IR Inten    --   212.8764                26.9189                52.0897

                    91                     92                     93
                     A                      A                      A
 Frequencies --  1270.6735              1296.2433              1306.9143
 Red. masses --     2.7202                 1.6953                 2.3129
 Frc consts  --     2.5878                 1.6783                 2.3275
 IR Inten    --     6.3860                 1.7608                 8.7321

                    94                     95                     96
                     A                      A                      A
 Frequencies --  1320.5260              1335.1445              1342.3155
 Red. masses --     1.6534                 2.0530                 1.7929
 Frc consts  --     1.6987                 2.1562                 1.9033
 IR Inten    --    58.6474                54.3735                35.0443

                    97                     98                     99
                     A                      A                      A
 Frequencies --  1349.3283              1352.3933              1362.7774
 Red. masses --     2.6645                 1.9634                 4.6182
 Frc consts  --     2.8583                 2.1157                 5.0533
 IR Inten    --     8.1686                49.1646                 2.4961

                   100                    101                    102
                     A                      A                      A
 Frequencies --  1375.7795              1408.6943              1420.6480
 Red. masses --     3.9211                 2.0262                 2.4061
 Frc consts  --     4.3727                 2.3690                 2.8611
 IR Inten    --    23.5168               200.0735                26.4049

                   103                    104                    105
                     A                      A                      A
 Frequencies --  1428.6928              1436.0751              1442.1128
 Red. masses --     3.0709                 3.0093                 1.9061
 Frc consts  --     3.6931                 3.6566                 2.3356
 IR Inten    --     1.8147                 1.6064                49.9735

                   106                    107                    108
                     A                      A                      A
 Frequencies --  1454.8875              1459.4838              1469.7495
 Red. masses --     3.1647                 2.9434                 3.2017
 Frc consts  --     3.9468                 3.6940                 4.0748
 IR Inten    --    31.7567                18.4429                 6.4598

                   109                    110                    111
                     A                      A                      A
 Frequencies --  1474.6475              1489.4596              1522.6727
 Red. masses --     1.3436                 3.5624                 2.9902
 Frc consts  --     1.7215                 4.6564                 4.0847
 IR Inten    --    25.2511                23.4695                41.3419

                   112                    113                    114
                     A                      A                      A
 Frequencies --  1530.2391              1539.0936              1593.7235
 Red. masses --     3.7847                 3.4589                 5.8194
 Frc consts  --     5.2216                 4.8275                 8.7087
 IR Inten    --    20.0130               106.6733                 1.5337

                   115                    116                    117
                     A                      A                      A
 Frequencies --  1595.4357              1620.3923              1635.4021
 Red. masses --     5.2281                 7.2068                 7.3627
 Frc consts  --     7.8406                11.1489                11.6020
 IR Inten    --    27.8893                 0.4339                 2.5877

                   118                    119                    120
                     A                      A                      A
 Frequencies --  1664.1541              1669.2760              1770.9483
 Red. masses --     6.1589                 7.4696                12.0775
 Frc consts  --    10.0494                12.2633                22.3171
 IR Inten    --     2.5867                14.0632               245.3774

                   121                    122                    123
                     A                      A                      A
 Frequencies --  3046.8082              3054.4938              3086.5830
 Red. masses --     1.0647                 1.0634                 1.0999
 Frc consts  --     5.8230                 5.8454                 6.1737
 IR Inten    --    23.8209                19.8744                10.1773

                   124                    125                    126
                     A                      A                      A
 Frequencies --  3119.9346              3177.3233              3178.8209
 Red. masses --     1.0999                 1.0877                 1.0859
 Frc consts  --     6.3081                 6.4696                 6.4650
 IR Inten    --     4.0345                15.0724                 2.3244

                   127                    128                    129
                     A                      A                      A
 Frequencies --  3193.1315              3200.9508              3201.3765
 Red. masses --     1.0902                 1.0938                 1.0910
 Frc consts  --     6.5494                 6.6028                 6.5877
 IR Inten    --    12.9544                 5.6069                 3.3328

                   130                    131                    132
                     A                      A                      A
 Frequencies --  3209.3660              3213.3830              3213.5486
 Red. masses --     1.0951                 1.0897                 1.0964
 Frc consts  --     6.6455                 6.6295                 6.6708
 IR Inten    --    17.6720                 0.3408                 5.3342

                   133                    134                    135
                     A                      A                      A
 Frequencies --  3241.5576              3248.0331              3248.3873
 Red. masses --     1.0938                 1.0974                 1.0941
 Frc consts  --     6.7717                 6.8212                 6.8023
 IR Inten    --     1.5818                 3.1344                 1.2804

                   136                    137                    138
                     A                      A                      A
 Frequencies --  3251.6688              3276.6017              3636.7830
 Red. masses --     1.0990                 1.0987                 1.0825
 Frc consts  --     6.8462                 6.9496                 8.4353
 IR Inten    --     0.9773                 1.0432                94.4192

 - Thermochemistry -
 -------------------
 Temperature   298.150 Kelvin.  Pressure   1.00000 Atm.
 Atom     1 has atomic number  8 and mass  15.99491

 Molecular mass:   414.12628 amu.
 Principal axes and moments of inertia in atomic units:
                           1         2         3
     Eigenvalues --  9529.25474********************
           X            1.00000  -0.00057   0.00236
           Y            0.00061   0.99985  -0.01758
           Z           -0.00235   0.01758   0.99984
 This molecule is an asymmetric top.
 Rotational symmetry number  1.
 Warning -- assumption of classical behavior for rotation
           may cause significant error
 Rotational temperatures (Kelvin)      0.00909     0.00353     0.00285
 Rotational constants (GHZ):           0.18939     0.07359     0.05932
 Zero-point vibrational energy     967270.1 (Joules/Mol)
                                  231.18310 (Kcal/Mol)
 Warning -- explicit consideration of  38 degrees of freedom as
           vibrations may cause significant error
 Vibrational temperatures:     18.23    29.93    36.45    39.60    44.90
          (Kelvin)             57.21    80.20    87.45   100.79   117.61
                              157.03   197.47   251.86   263.90   289.71
                              318.04   333.82   354.32   382.16   429.63
                              462.56   497.99   573.80   595.03   600.46
                              626.60   632.63   659.86   679.44   686.96
                              746.15   775.07   783.68   821.76   839.70
                              845.24   867.94   876.71   930.23   942.30
                              950.80   964.45   981.92   994.60  1004.69
                             1012.90  1057.38  1092.81  1113.72  1119.34
                             1129.86  1131.55  1142.74  1180.30  1197.82
                             1200.28  1208.70  1243.02  1245.58  1250.10
                             1267.05  1288.41  1329.35  1350.24  1361.33
                             1369.57  1378.10  1384.03  1388.58  1433.57
                             1444.27  1445.39  1473.76  1480.88  1545.85
                             1566.65  1577.51  1599.94  1618.97  1622.64
                             1630.68  1647.88  1648.95  1673.63  1693.85
                             1733.04  1747.63  1761.70  1763.63  1811.22
                             1828.21  1865.00  1880.36  1899.94  1920.97
                             1931.29  1941.38  1945.79  1960.73  1979.44
                             2026.79  2043.99  2055.57  2066.19  2074.88
                             2093.26  2099.87  2114.64  2121.69  2143.00
                             2190.78  2201.67  2214.41  2293.01  2295.47
                             2331.38  2352.98  2394.34  2401.71  2548.00
                             4383.67  4394.73  4440.90  4488.88  4571.45
                             4573.61  4594.20  4605.45  4606.06  4617.56
                             4623.34  4623.57  4663.87  4673.19  4673.70
                             4678.42  4714.29  5232.51

 Zero-point correction=                           0.368414 (Hartree/Particle)
 Thermal correction to Energy=                    0.392861
 Thermal correction to Enthalpy=                  0.393805
 Thermal correction to Gibbs Free Energy=         0.308957
 Sum of electronic and zero-point Energies=          -1650.795287
 Sum of electronic and thermal Energies=             -1650.770839
 Sum of electronic and thermal Enthalpies=           -1650.769895
 Sum of electronic and thermal Free Energies=        -1650.854743

                     E (Thermal)             CV                S
                      KCal/Mol        Cal/Mol-Kelvin    Cal/Mol-Kelvin
 Total                  246.524             95.422            178.577
 Electronic               0.000              0.000              0.000
 Translational            0.889              2.981             43.954
 Rotational               0.889              2.981             37.206
 Vibrational            244.746             89.460             97.417
 Vibration     1          0.593              1.987              7.541
 Vibration     2          0.593              1.986              6.556
 Vibration     3          0.593              1.985              6.165
 Vibration     4          0.593              1.984              6.000
 Vibration     5          0.594              1.983              5.751
 Vibration     6          0.594              1.981              5.271
 Vibration     7          0.596              1.975              4.602
 Vibration     8          0.597              1.973              4.432
 Vibration     9          0.598              1.968              4.152
 Vibration    10          0.600              1.962              3.849
 Vibration    11          0.606              1.942              3.284
 Vibration    12          0.614              1.916              2.842
 Vibration    13          0.627              1.873              2.381
 Vibration    14          0.631              1.862              2.293
 Vibration    15          0.638              1.838              2.121
 Vibration    16          0.648              1.809              1.951
 Vibration    17          0.653              1.792              1.863
 Vibration    18          0.661              1.769              1.757
 Vibration    19          0.671              1.736              1.625
 Vibration    20          0.692              1.676              1.425
 Vibration    21          0.707              1.632              1.302
 Vibration    22          0.724              1.583              1.184
 Vibration    23          0.765              1.473              0.967
 Vibration    24          0.777              1.441              0.914
 Vibration    25          0.780              1.433              0.901
 Vibration    26          0.796              1.393              0.841
 Vibration    27          0.800              1.384              0.828
 Vibration    28          0.817              1.342              0.770
 Vibration    29          0.829              1.312              0.731
 Vibration    30          0.834              1.300              0.717
 Vibration    31          0.874              1.209              0.613
 Vibration    32          0.894              1.164              0.568
 Vibration    33          0.900              1.151              0.555
 Vibration    34          0.927              1.094              0.502
 Vibration    35          0.941              1.067              0.479
 Vibration    36          0.945              1.059              0.472
 Vibration    37          0.962              1.025              0.444
 Vibration    38          0.968              1.012              0.434

 Normal termination of Gaussian 09 at Sun Sep  4 06:31:20 2022.
