 Gaussian 09, Revision C.01,
 Gaussian 09:  EM64L-G09RevC.01 23-Sep-2011

 -------------------------
 #p opt freq b3lyp/cc-pvdz
 -------------------------

 (Enter /opt/gaussian/l101.exe)
 ---------
 Mol27.log
 ---------
 Charge =  0 Multiplicity = 1

 SCF Done:  E(RB3LYP) =  -1689.26206125     A.U. after   16 cycles
 SCF Done:  E(RB3LYP) =  -1689.27346564     A.U. after   13 cycles
 SCF Done:  E(RB3LYP) =  -1689.27422020     A.U. after   13 cycles
 SCF Done:  E(RB3LYP) =  -1689.27439669     A.U. after   13 cycles
 SCF Done:  E(RB3LYP) =  -1689.27441532     A.U. after   12 cycles
 SCF Done:  E(RB3LYP) =  -1689.27449636     A.U. after   13 cycles
 SCF Done:  E(RB3LYP) =  -1689.27454977     A.U. after   12 cycles
 SCF Done:  E(RB3LYP) =  -1689.27460417     A.U. after   13 cycles
 SCF Done:  E(RB3LYP) =  -1689.27464599     A.U. after   11 cycles
 SCF Done:  E(RB3LYP) =  -1689.27467139     A.U. after   12 cycles
 SCF Done:  E(RB3LYP) =  -1689.27468892     A.U. after    9 cycles
 SCF Done:  E(RB3LYP) =  -1689.27469280     A.U. after   11 cycles
 SCF Done:  E(RB3LYP) =  -1689.27469498     A.U. after   10 cycles
 SCF Done:  E(RB3LYP) =  -1689.27469652     A.U. after   10 cycles
 SCF Done:  E(RB3LYP) =  -1689.27469754     A.U. after   10 cycles
 SCF Done:  E(RB3LYP) =  -1689.27469816     A.U. after    8 cycles
 SCF Done:  E(RB3LYP) =  -1689.27469871     A.U. after    9 cycles
 SCF Done:  E(RB3LYP) =  -1689.27469882     A.U. after    7 cycles
 SCF Done:  E(RB3LYP) =  -1689.27469885     A.U. after    6 cycles
 Optimization completed.
    -- Stationary point found.
 Normal termination of Gaussian 09 at Mon Sep  5 17:43:40 2022.

 -------------------------------------------------------------------
 #P Geom=AllCheck Guess=TCheck SCRF=Check GenChk RB3LYP/CC-pVDZ Freq
 -------------------------------------------------------------------

 Structure from the checkpoint file:  /home/scr/lqcapf-6/Gau-243714.chk
 ---------
 Mol27.log
 ---------
 Charge =  0 Multiplicity = 1

                         Standard orientation:
 ---------------------------------------------------------------------
 Center     Atomic      Atomic             Coordinates (Angstroms)
 Number     Number       Type             X           Y           Z
 ---------------------------------------------------------------------
      1          8           0        1.217348   -1.372398   -0.424807
      2          6           0        1.336953   -0.262195   -0.906795
      3          6           0        2.725237    0.315527   -1.246209
      4          7           0        3.776007   -0.640227   -1.004560
      5          7           0        4.393303   -1.247910   -2.062216
      6          7           0        5.294479   -2.060354   -1.626411
      7          6           0        5.292071   -2.013186   -0.245513
      8          6           0        6.082611   -2.692019    0.698756
      9          6           0        5.850972   -2.420845    2.040067
     10          6           0        4.853819   -1.496515    2.444957
     11          6           0        4.061369   -0.819343    1.526718
     12          6           0        4.302846   -1.096958    0.171141
     13          7           0        0.248443    0.553059   -1.186935
     14          6           0        0.372579    1.956058   -1.612115
     15          6           0        0.389629    2.931826   -0.458991
     16          6           0       -0.561859    3.882707   -0.198390
     17         16           0       -0.139362    4.782425    1.224761
     18          6           0        1.297037    3.796822    1.364851
     19          7           0        1.440404    2.892775    0.438892
     20          6           0       -1.070797    0.093067   -0.846707
     21          6           0       -2.056851    0.032311   -1.839039
     22          6           0       -3.352566   -0.376399   -1.524282
     23          6           0       -3.695913   -0.751166   -0.212968
     24          6           0       -2.690119   -0.698413    0.770355
     25          6           0       -1.396644   -0.280851    0.462481
     26          6           0       -5.072279   -1.193482    0.120964
     27          6           0       -6.207558   -0.599781   -0.454919
     28          6           0       -7.475103   -1.058831   -0.100963
     29          6           0       -7.575564   -2.099393    0.826293
     30          7           0       -6.512055   -2.690089    1.388073
     31          6           0       -5.303255   -2.242300    1.033120
     32          1           0        2.792206    0.574952   -2.312180
     33          1           0        2.893719    1.225894   -0.650350
     34          1           0        6.845313   -3.401309    0.373811
     35          1           0        6.442717   -2.927933    2.804978
     36          1           0        4.702496   -1.317785    3.511981
     37          1           0        3.286509   -0.120123    1.843025
     38          1           0        1.285058    2.076066   -2.210261
     39          1           0       -0.469710    2.193220   -2.275237
     40          1           0       -1.473577    4.096181   -0.751816
     41          1           0        2.005996    3.956248    2.178552
     42          1           0       -1.802427    0.284721   -2.870933
     43          1           0       -4.097781   -0.442934   -2.319613
     44          1           0       -2.929792   -0.963011    1.802008
     45          1           0       -0.633315   -0.244661    1.239049
     46          1           0       -6.097181    0.230108   -1.156760
     47          1           0       -8.374489   -0.610349   -0.527969
     48          1           0       -8.556296   -2.477753    1.133349
     49          1           0       -4.452186   -2.761765    1.485851
 ---------------------------------------------------------------------

 SCF Done:  E(RB3LYP) =  -1689.27469885     A.U. after    1 cycles

 The electronic state is 1-A.
 Alpha  occ. eigenvalues --  -88.94013 -19.11990 -14.40505 -14.38342 -14.38001
 Alpha  occ. eigenvalues --  -14.36143 -14.34134 -14.33129 -10.30173 -10.27577
 Alpha  occ. eigenvalues --  -10.26029 -10.24996 -10.24766 -10.24495 -10.24219
 Alpha  occ. eigenvalues --  -10.22775 -10.22759 -10.22542 -10.21527 -10.21518
 Alpha  occ. eigenvalues --  -10.21459 -10.20871 -10.20752 -10.20626 -10.20522
 Alpha  occ. eigenvalues --  -10.20515 -10.20452 -10.19885 -10.19576 -10.19383
 Alpha  occ. eigenvalues --  -10.18992  -8.00273  -5.96568  -5.96208  -5.95931
 Alpha  occ. eigenvalues --   -1.08798  -1.05287  -0.99344  -0.95876  -0.94707
 Alpha  occ. eigenvalues --   -0.91792  -0.87337  -0.85881  -0.82533  -0.82125
 Alpha  occ. eigenvalues --   -0.79830  -0.78515  -0.77205  -0.76447  -0.76348
 Alpha  occ. eigenvalues --   -0.74656  -0.73209  -0.71017  -0.65916  -0.64488
 Alpha  occ. eigenvalues --   -0.64349  -0.62653  -0.62035  -0.61775  -0.61553
 Alpha  occ. eigenvalues --   -0.58963  -0.58220  -0.56496  -0.53809  -0.53326
 Alpha  occ. eigenvalues --   -0.52664  -0.51938  -0.51595  -0.51219  -0.49740
 Alpha  occ. eigenvalues --   -0.49334  -0.47895  -0.46670  -0.46191  -0.45753
 Alpha  occ. eigenvalues --   -0.45308  -0.44794  -0.44591  -0.44052  -0.43773
 Alpha  occ. eigenvalues --   -0.43629  -0.43223  -0.43026  -0.42224  -0.41271
 Alpha  occ. eigenvalues --   -0.40871  -0.40521  -0.39477  -0.39242  -0.38427
 Alpha  occ. eigenvalues --   -0.37678  -0.37129  -0.36700  -0.36154  -0.35929
 Alpha  occ. eigenvalues --   -0.35052  -0.32446  -0.31049  -0.30956  -0.30738
 Alpha  occ. eigenvalues --   -0.30228  -0.28788  -0.27764  -0.27369  -0.26663
 Alpha  occ. eigenvalues --   -0.26246  -0.26003  -0.25959  -0.24399  -0.23584
 Alpha  occ. eigenvalues --   -0.22881
 Alpha virt. eigenvalues --   -0.05497  -0.04991  -0.03647  -0.03214  -0.02315
 Alpha virt. eigenvalues --   -0.00285   0.00119   0.00476   0.01332   0.02331
 Alpha virt. eigenvalues --    0.04005   0.04352   0.05680   0.05804   0.06568

 Mulliken atomic charges:
              1
     1  O   -0.236999
     2  C    0.139458
     3  C    0.110915
     4  N   -0.225653
     5  N   -0.061638
     6  N   -0.184638
     7  C    0.010825
     8  C    0.043664
     9  C    0.036919
    10  C    0.039176
    11  C    0.028837
    12  C    0.211943
    13  N   -0.287678
    14  C    0.161656
    15  C    0.066200
    16  C   -0.128752
    17  S    0.155255
    18  C   -0.001979
    19  N   -0.183681
    20  C    0.078334
    21  C    0.057432
    22  C    0.021205
    23  C    0.036370
    24  C    0.018220
    25  C    0.097896
    26  C   -0.045215
    27  C    0.074364
    28  C   -0.008210
    29  C    0.105930
    30  N   -0.172512
    31  C    0.099900
    32  H    0.056379
    33  H    0.058732
    34  H   -0.023778
    35  H   -0.029106
    36  H   -0.028436
    37  H   -0.029277
    38  H    0.047670
    39  H    0.013981
    40  H    0.019681
    41  H    0.039122
    42  H   -0.029908
    43  H   -0.034438
    44  H   -0.030110
    45  H   -0.026651
    46  H   -0.030406
    47  H   -0.023557
    48  H   -0.002801
    49  H   -0.004641
 Sum of Mulliken atomic charges =   0.00000

 Dipole moment (field-independent basis, Debye):
    X=             -3.8155    Y=              7.7830    Z=              0.8661  Tot=              8.7110
 Quadrupole moment (field-independent basis, Debye-Ang):
   XX=           -191.1618   YY=           -184.8575   ZZ=           -178.0876
   XY=             -1.3259   XZ=             27.2597   YZ=             -5.3015

  Exact polarizability: 400.491 -22.182 246.973  10.941 -18.417 267.675
 Approx polarizability: 555.169 -61.398 399.502  18.940 -41.751 511.651

                     1                      2                      3
                     A                      A                      A
 Frequencies --    11.5030                17.9530                21.3116
 Red. masses --     6.4964                 8.9790                 6.5443
 Frc consts  --     0.0005                 0.0017                 0.0018
 IR Inten    --     1.2353                 0.1965                 0.6753

                     4                      5                      6
                     A                      A                      A
 Frequencies --    24.5559                28.9022                32.6797
 Red. masses --     4.4243                 6.7471                 5.9934
 Frc consts  --     0.0016                 0.0033                 0.0038
 IR Inten    --     0.3739                 0.9547                 0.8440

                     7                      8                      9
                     A                      A                      A
 Frequencies --    54.7320                66.4495                70.6350
 Red. masses --     6.4368                 4.9011                 7.0447
 Frc consts  --     0.0114                 0.0128                 0.0207
 IR Inten    --     0.1345                 0.5324                 1.0966

                    10                     11                     12
                     A                      A                      A
 Frequencies --    72.2316                92.5256               124.0312
 Red. masses --     5.9219                 6.0006                 5.9011
 Frc consts  --     0.0182                 0.0303                 0.0535
 IR Inten    --     1.4128                 0.8114                 3.0283

                    13                     14                     15
                     A                      A                      A
 Frequencies --   153.7361               174.7387               187.5494
 Red. masses --     6.2250                 6.9715                 5.9733
 Frc consts  --     0.0867                 0.1254                 0.1238
 IR Inten    --     1.3338                 0.8351                 0.1550

                    16                     17                     18
                     A                      A                      A
 Frequencies --   206.3217               226.5930               232.8126
 Red. masses --     5.7787                 5.6127                 5.9861
 Frc consts  --     0.1449                 0.1698                 0.1912
 IR Inten    --     2.5444                 1.8926                 0.7122

                    19                     20                     21
                     A                      A                      A
 Frequencies --   262.6850               309.9638               324.5683
 Red. masses --     2.7639                 4.4358                 6.7149
 Frc consts  --     0.1124                 0.2511                 0.4168
 IR Inten    --     4.8899                 0.6479                 0.4470

                    22                     23                     24
                     A                      A                      A
 Frequencies --   341.6678               354.3306               395.0738
 Red. masses --     4.2206                 8.3510                 2.8286
 Frc consts  --     0.2903                 0.6177                 0.2601
 IR Inten    --     5.7116                 7.7161                 2.9575

                    25                     26                     27
                     A                      A                      A
 Frequencies --   413.3840               420.8949               425.7464
 Red. masses --     3.3363                 3.5388                 4.3575
 Frc consts  --     0.3359                 0.3694                 0.4654
 IR Inten    --     2.6273                 1.5043                 0.0684

                    28                     29                     30
                     A                      A                      A
 Frequencies --   440.5747               445.3386               478.5571
 Red. masses --     2.9141                 3.5996                 4.2165
 Frc consts  --     0.3333                 0.4206                 0.5690
 IR Inten    --     2.5996                 3.3263                 0.9757

                    31                     32                     33
                     A                      A                      A
 Frequencies --   487.4425               517.0078               538.3450
 Red. masses --     4.5731                 3.9387                 5.3598
 Frc consts  --     0.6402                 0.6203                 0.9152
 IR Inten    --     2.0070                 2.2586                 1.7043

                    34                     35                     36
                     A                      A                      A
 Frequencies --   570.9514               577.8352               584.9836
 Red. masses --     3.6012                 4.0193                 4.5528
 Frc consts  --     0.6917                 0.7907                 0.9179
 IR Inten    --     3.1963                 3.1141                 3.8734

                    37                     38                     39
                     A                      A                      A
 Frequencies --   586.8489               590.4618               620.2247
 Red. masses --     4.7749                 6.4766                 5.3231
 Frc consts  --     0.9689                 1.3304                 1.2065
 IR Inten    --     3.4002                 5.0781                34.0957

                    40                     41                     42
                     A                      A                      A
 Frequencies --   631.7039               651.2272               656.2913
 Red. masses --     6.3100                 6.7154                 6.9819
 Frc consts  --     1.4836                 1.6780                 1.7718
 IR Inten    --     2.8917                 1.4128                 2.2324

                    43                     44                     45
                     A                      A                      A
 Frequencies --   669.9660               676.5578               726.9733
 Red. masses --     6.8998                 6.4436                 5.5437
 Frc consts  --     1.8247                 1.7378                 1.7262
 IR Inten    --     2.7473                 7.2658                11.1821

                    46                     47                     48
                     A                      A                      A
 Frequencies --   731.8347               739.5441               753.1967
 Red. masses --     1.9995                 1.4579                 3.1597
 Frc consts  --     0.6310                 0.4698                 1.0561
 IR Inten    --    19.0847                11.8897                 4.9817

                    49                     50                     51
                     A                      A                      A
 Frequencies --   761.6030               767.3721               787.8903
 Red. masses --     1.4073                 3.3099                 3.6422
 Frc consts  --     0.4809                 1.1483                 1.3321
 IR Inten    --    46.5626                 4.5982                 2.8626

                    52                     53                     54
                     A                      A                      A
 Frequencies --   788.5042               799.4015               816.6308
 Red. masses --     4.4121                 4.5226                 2.9133
 Frc consts  --     1.6162                 1.7028                 1.1447
 IR Inten    --     5.7569                12.2719                16.1546

                    55                     56                     57
                     A                      A                      A
 Frequencies --   823.5136               827.4787               836.3451
 Red. masses --     1.7133                 2.6471                 2.6227
 Frc consts  --     0.6846                 1.0679                 1.0809
 IR Inten    --    23.1603                55.2320                12.5594

                    58                     59                     60
                     A                      A                      A
 Frequencies --   841.9000               858.6231               867.7009
 Red. masses --     1.2589                 2.1939                 1.5985
 Frc consts  --     0.5257                 0.9529                 0.7091
 IR Inten    --     2.3914                11.9566                 0.4051

                    61                     62                     63
                     A                      A                      A
 Frequencies --   870.7109               882.7973               923.1177
 Red. masses --     2.8862                 3.6356                 5.1040
 Frc consts  --     1.2892                 1.6694                 2.5626
 IR Inten    --    10.7284                18.4104                 2.9866

                    64                     65                     66
                     A                      A                      A
 Frequencies --   948.8168               948.8988               959.3034
 Red. masses --     1.3540                 3.7008                 1.3640
 Frc consts  --     0.7182                 1.9633                 0.7395
 IR Inten    --     0.8144                 3.1033                 0.9999

                    67                     68                     69
                     A                      A                      A
 Frequencies --   967.6825               968.8016               977.8692
 Red. masses --     1.3934                 3.1776                 1.4543
 Frc consts  --     0.7687                 1.7572                 0.8194
 IR Inten    --     2.4194                62.8370                 0.5588

                    70                     71                     72
                     A                      A                      A
 Frequencies --   980.3675               992.1187               996.6060
 Red. masses --     1.3716                 2.4080                 1.2873
 Frc consts  --     0.7767                 1.3965                 0.7533
 IR Inten    --     0.6666                32.0478                 0.0358

                    73                     74                     75
                     A                      A                      A
 Frequencies --  1004.2159              1017.6278              1024.1281
 Red. masses --     1.3904                 6.0605                 1.9955
 Frc consts  --     0.8261                 3.6977                 1.2331
 IR Inten    --     1.2626                18.9778                11.0686

                    76                     77                     78
                     A                      A                      A
 Frequencies --  1032.8104              1045.3985              1078.2623
 Red. masses --     2.9922                 3.9079                 1.9582
 Frc consts  --     1.8806                 2.5163                 1.3414
 IR Inten    --     3.8513                 1.3823                 0.9858

                    79                     80                     81
                     A                      A                      A
 Frequencies --  1100.7883              1124.3187              1127.7051
 Red. masses --     3.1395                 2.1199                 2.0401
 Frc consts  --     2.2414                 1.5789                 1.5286
 IR Inten    --    68.8313                19.7174                 5.3877

                    82                     83                     84
                     A                      A                      A
 Frequencies --  1133.2585              1136.8140              1140.1212
 Red. masses --     1.5436                 1.3714                 1.6358
 Frc consts  --     1.1680                 1.0443                 1.2528
 IR Inten    --     7.0663                 6.7586                17.8309

                    85                     86                     87
                     A                      A                      A
 Frequencies --  1146.7118              1177.8811              1194.5946
 Red. masses --     1.4289                 1.6191                 1.1514
 Frc consts  --     1.1071                 1.3235                 0.9681
 IR Inten    --     3.9992                 9.8853                 8.5021

                    88                     89                     90
                     A                      A                      A
 Frequencies --  1212.3469              1219.7616              1240.0282
 Red. masses --     1.5952                 1.4620                 1.6357
 Frc consts  --     1.3814                 1.2816                 1.4819
 IR Inten    --   167.0793                 6.8803                68.6419

                    91                     92                     93
                     A                      A                      A
 Frequencies --  1256.6119              1269.8492              1291.4413
 Red. masses --     2.7394                 2.6610                 3.4189
 Frc consts  --     2.5486                 2.5281                 3.3596
 IR Inten    --    54.5651                11.2575                 3.4277

                    94                     95                     96
                     A                      A                      A
 Frequencies --  1297.0001              1310.4390              1318.9360
 Red. masses --     1.7461                 2.5339                 1.6309
 Frc consts  --     1.7306                 2.5637                 1.6716
 IR Inten    --     4.1426                 4.2581                 1.1075

                    97                     98                     99
                     A                      A                      A
 Frequencies --  1320.1275              1331.1025              1338.3327
 Red. masses --     1.7472                 4.5169                 1.9147
 Frc consts  --     1.7940                 4.7154                 2.0206
 IR Inten    --    76.3503                12.9408                40.1669

                   100                    101                    102
                     A                      A                      A
 Frequencies --  1356.4728              1358.9236              1369.9950
 Red. masses --     1.6883                 2.2100                 2.1703
 Frc consts  --     1.8303                 2.4046                 2.4000
 IR Inten    --     1.1001                 3.9812                14.5814

                   103                    104                    105
                     A                      A                      A
 Frequencies --  1377.1775              1414.1472              1426.3449
 Red. masses --     2.1426                 2.1838                 2.4900
 Frc consts  --     2.3943                 2.5731                 2.9846
 IR Inten    --    28.5354               189.9054                 6.1062

                   106                    107                    108
                     A                      A                      A
 Frequencies --  1429.6131              1441.2766              1448.4567
 Red. masses --     4.1874                 4.7251                 1.2757
 Frc consts  --     5.0423                 5.7831                 1.5769
 IR Inten    --     0.6828                12.2037                34.1564

                   109                    110                    111
                     A                      A                      A
 Frequencies --  1456.9025              1465.4862              1483.9823
 Red. masses --     2.6665                 1.1225                 7.5508
 Frc consts  --     3.3347                 1.4203                 9.7972
 IR Inten    --    51.3339                12.2075                72.3363

                   112                    113                    114
                     A                      A                      A
 Frequencies --  1490.3286              1502.5177              1530.5174
 Red. masses --     3.5377                 2.3070                 3.8477
 Frc consts  --     4.6295                 3.0685                 5.3104
 IR Inten    --    21.0284                53.2252                19.1532

                   115                    116                    117
                     A                      A                      A
 Frequencies --  1546.5496              1563.8843              1604.2947
 Red. masses --     2.9567                 7.3417                 5.5731
 Frc consts  --     4.1666                10.5793                 8.4511
 IR Inten    --    52.0189                19.5823                 4.7380

                   118                    119                    120
                     A                      A                      A
 Frequencies --  1622.8579              1635.9205              1637.7875
 Red. masses --     6.8186                 7.3930                 6.2276
 Frc consts  --    10.5805                11.6572                 9.8420
 IR Inten    --     4.5401                 2.1357                 2.3787

                   121                    122                    123
                     A                      A                      A
 Frequencies --  1658.6677              1669.2727              1778.3691
 Red. masses --     6.3130                 7.4721                12.1523
 Frc consts  --    10.2330                12.2673                22.6440
 IR Inten    --    10.3374                13.8587               247.2623

                   124                    125                    126
                     A                      A                      A
 Frequencies --  3058.0262              3084.5875              3122.1408
 Red. masses --     1.0611                 1.0606                 1.1043
 Frc consts  --     5.8462                 5.9456                 6.3420
 IR Inten    --     8.5630                15.9171                14.7163

                   127                    128                    129
                     A                      A                      A
 Frequencies --  3129.6393              3153.8476              3156.9331
 Red. masses --     1.1046                 1.0876                 1.0920
 Frc consts  --     6.3746                 6.3741                 6.4121
 IR Inten    --    10.8094                28.4914                 4.1313

                   130                    131                    132
                     A                      A                      A
 Frequencies --  3176.8863              3177.5748              3181.2124
 Red. masses --     1.0875                 1.0858                 1.0889
 Frc consts  --     6.4668                 6.4592                 6.4924
 IR Inten    --    21.4167                 2.5063                 4.4303

                   133                    134                    135
                     A                      A                      A
 Frequencies --  3189.6569              3192.0035              3194.9455
 Red. masses --     1.0893                 1.0899                 1.0951
 Frc consts  --     6.5298                 6.5430                 6.5862
 IR Inten    --     6.5910                12.9250                 4.9361

                   136                    137                    138
                     A                      A                      A
 Frequencies --  3199.9238              3206.7498              3210.9666
 Red. masses --     1.0974                 1.0948                 1.0970
 Frc consts  --     6.6206                 6.6333                 6.6642
 IR Inten    --    19.1871                14.7885                 8.2776

                   139                    140                    141
                     A                      A                      A
 Frequencies --  3221.4659              3222.0455              3256.7662
 Red. masses --     1.0943                 1.0951                 1.0963
 Frc consts  --     6.6913                 6.6981                 6.8509
 IR Inten    --     3.8356                 0.1332                 2.4531

 - Thermochemistry -
 -------------------
 Temperature   298.150 Kelvin.  Pressure   1.00000 Atm.
 Atom     1 has atomic number  8 and mass  15.99491

 Molecular mass:   426.12628 amu.
 Principal axes and moments of inertia in atomic units:
                           1         2         3
     Eigenvalues --  9672.59233********************
           X            0.99998   0.00047   0.00675
           Y           -0.00033   0.99980  -0.01993
           Z           -0.00676   0.01992   0.99978
 This molecule is an asymmetric top.
 Rotational symmetry number  1.
 Warning -- assumption of classical behavior for rotation
           may cause significant error
 Rotational temperatures (Kelvin)      0.00895     0.00324     0.00271
 Rotational constants (GHZ):           0.18658     0.06744     0.05654
 Zero-point vibrational energy     982213.2 (Joules/Mol)
                                  234.75459 (Kcal/Mol)
 Warning -- explicit consideration of  39 degrees of freedom as
           vibrations may cause significant error
 Vibrational temperatures:     16.55    25.83    30.66    35.33    41.58
          (Kelvin)             47.02    78.75    95.61   101.63   103.93
                              133.12   178.45   221.19   251.41   269.84
                              296.85   326.02   334.97   377.94   445.97
                              466.98   491.58   509.80   568.42   594.77
                              605.57   612.55   633.89   640.74   688.54
                              701.32   743.86   774.56   821.47   831.37
                              841.66   844.34   849.54   892.36   908.88
                              936.97   944.26   963.93   973.41  1045.95
                             1052.95  1064.04  1083.68  1095.78  1104.08
                             1133.60  1134.48  1150.16  1174.95  1184.85
                             1190.56  1203.31  1211.30  1235.37  1248.43
                             1252.76  1270.15  1328.16  1365.13  1365.25
                             1380.22  1392.28  1393.89  1406.93  1410.53
                             1427.44  1433.89  1444.84  1464.14  1473.49
                             1485.98  1504.09  1551.38  1583.79  1617.64
                             1622.51  1630.50  1635.62  1640.38  1649.86
                             1694.71  1718.75  1744.29  1754.96  1784.12
                             1807.98  1827.03  1858.09  1866.09  1885.43
                             1897.65  1899.37  1915.16  1925.56  1951.66
                             1955.19  1971.11  1981.45  2034.64  2052.19
                             2056.89  2073.67  2084.00  2096.16  2108.51
                             2135.12  2144.25  2161.79  2202.07  2225.14
                             2250.08  2308.22  2334.93  2353.72  2356.41
                             2386.45  2401.71  2558.67  4399.81  4438.03
                             4492.06  4502.85  4537.68  4542.12  4570.83
                             4571.82  4577.05  4589.20  4592.58  4596.81
                             4603.97  4613.79  4619.86  4634.97  4635.80
                             4685.75

 Zero-point correction=                           0.374105 (Hartree/Particle)
 Thermal correction to Energy=                    0.399087
 Thermal correction to Enthalpy=                  0.400031
 Thermal correction to Gibbs Free Energy=         0.313214
 Sum of electronic and zero-point Energies=          -1688.900594
 Sum of electronic and thermal Energies=             -1688.875612
 Sum of electronic and thermal Enthalpies=           -1688.874668
 Sum of electronic and thermal Free Energies=        -1688.961485

                     E (Thermal)             CV                S
                      KCal/Mol        Cal/Mol-Kelvin    Cal/Mol-Kelvin
 Total                  250.431             97.052            182.722
 Electronic               0.000              0.000              0.000
 Translational            0.889              2.981             44.039
 Rotational               0.889              2.981             37.355
 Vibrational            248.653             91.090            101.328
 Vibration     1          0.593              1.987              7.733
 Vibration     2          0.593              1.986              6.849
 Vibration     3          0.593              1.985              6.508
 Vibration     4          0.593              1.985              6.227
 Vibration     5          0.593              1.984              5.903
 Vibration     6          0.594              1.983              5.660
 Vibration     7          0.596              1.976              4.639
 Vibration     8          0.598              1.970              4.256
 Vibration     9          0.598              1.968              4.136
 Vibration    10          0.598              1.967              4.092
 Vibration    11          0.602              1.955              3.606
 Vibration    12          0.610              1.929              3.037
 Vibration    13          0.619              1.899              2.625
 Vibration    14          0.627              1.874              2.384
 Vibration    15          0.632              1.857              2.252
 Vibration    16          0.641              1.831              2.076
 Vibration    17          0.650              1.801              1.906
 Vibration    18          0.654              1.791              1.857
 Vibration    19          0.670              1.741              1.644
 Vibration    20          0.699              1.655              1.363
 Vibration    21          0.709              1.626              1.287
 Vibration    22          0.721              1.592              1.204
 Vibration    23          0.730              1.566              1.147
 Vibration    24          0.762              1.481              0.981
 Vibration    25          0.777              1.441              0.915
 Vibration    26          0.783              1.425              0.889
 Vibration    27          0.788              1.414              0.873
 Vibration    28          0.800              1.382              0.825
 Vibration    29          0.805              1.371              0.810
 Vibration    30          0.835              1.298              0.714
 Vibration    31          0.843              1.278              0.690
 Vibration    32          0.872              1.212              0.617
 Vibration    33          0.893              1.165              0.569
 Vibration    34          0.927              1.094              0.502
 Vibration    35          0.934              1.079              0.489
 Vibration    36          0.942              1.064              0.476
 Vibration    37          0.944              1.060              0.473
 Vibration    38          0.948              1.052              0.466
 Vibration    39          0.980              0.989              0.416

 Normal termination of Gaussian 09 at Mon Sep  5 20:09:44 2022.
