 Gaussian 09, Revision C.01,
 Gaussian 09:  EM64L-G09RevC.01 23-Sep-2011

 -------------------------
 #p opt freq b3lyp/cc-pvdz
 -------------------------

 (Enter /opt/gaussian/l101.exe)
 ---------
 Mol29.log
 ---------
 Charge =  0 Multiplicity = 1

 SCF Done:  E(RB3LYP) =  -1911.29575049     A.U. after   15 cycles
 SCF Done:  E(RB3LYP) =  -1911.30668083     A.U. after   13 cycles
 SCF Done:  E(RB3LYP) =  -1911.30724117     A.U. after   13 cycles
 SCF Done:  E(RB3LYP) =  -1911.30737522     A.U. after   13 cycles
 SCF Done:  E(RB3LYP) =  -1911.30742296     A.U. after   12 cycles
 SCF Done:  E(RB3LYP) =  -1911.30749221     A.U. after   11 cycles
 SCF Done:  E(RB3LYP) =  -1911.30750424     A.U. after   11 cycles
 SCF Done:  E(RB3LYP) =  -1911.30751754     A.U. after   11 cycles
 SCF Done:  E(RB3LYP) =  -1911.30752369     A.U. after   10 cycles
 SCF Done:  E(RB3LYP) =  -1911.30752726     A.U. after   10 cycles
 SCF Done:  E(RB3LYP) =  -1911.30752966     A.U. after   10 cycles
 SCF Done:  E(RB3LYP) =  -1911.30753097     A.U. after   10 cycles
 SCF Done:  E(RB3LYP) =  -1911.30753163     A.U. after    8 cycles
 SCF Done:  E(RB3LYP) =  -1911.30753224     A.U. after    7 cycles
 SCF Done:  E(RB3LYP) =  -1911.30753261     A.U. after    7 cycles
 SCF Done:  E(RB3LYP) =  -1911.30753288     A.U. after    7 cycles
 SCF Done:  E(RB3LYP) =  -1911.30753299     A.U. after    6 cycles
 Optimization completed.
    -- Stationary point found.
 Normal termination of Gaussian 09 at Tue Sep  6 06:52:57 2022.

 -------------------------------------------------------------------
 #P Geom=AllCheck Guess=TCheck SCRF=Check GenChk RB3LYP/CC-pVDZ Freq
 -------------------------------------------------------------------

 Structure from the checkpoint file:  /home/scr/lqcapf-6/Gau-270214.chk
 ---------
 Mol29.log
 ---------
 Charge =  0 Multiplicity = 1

                         Standard orientation:
 ---------------------------------------------------------------------
 Center     Atomic      Atomic             Coordinates (Angstroms)
 Number     Number       Type             X           Y           Z
 ---------------------------------------------------------------------
      1          9           0        2.833260    4.889172    1.980287
      2          6           0        2.243853    4.004575    1.163244
      3          6           0        1.585931    2.904196    1.698740
      4          6           0        0.971410    1.980362    0.848159
      5          6           0        1.013564    2.151952   -0.541074
      6          6           0        1.685692    3.265671   -1.066399
      7          6           0        2.297527    4.191925   -0.222574
      8         17           0        3.136048    5.577337   -0.877196
      9          6           0        0.340923    1.185791   -1.511398
     10          7           0       -0.126783   -0.081525   -0.940414
     11          6           0        0.758501   -1.124418   -0.682600
     12          8           0        0.436641   -2.158447   -0.129006
     13          6           0        2.214689   -0.902655   -1.142855
     14          7           0        3.030531   -2.068973   -0.927925
     15          7           0        3.440485   -2.800603   -2.011053
     16          7           0        4.164154   -3.788275   -1.613306
     17          6           0        4.252528   -3.738306   -0.235041
     18          6           0        4.929770   -4.573894    0.670449
     19          6           0        4.842161   -4.259040    2.019152
     20          6           0        4.094888   -3.140349    2.468135
     21          6           0        3.416169   -2.306719    1.588175
     22          6           0        3.512709   -2.627436    0.224181
     23          6           0       -1.524195   -0.209824   -0.633495
     24          6           0       -2.247947    0.905508   -0.182225
     25          6           0       -3.616837    0.812058    0.069967
     26          6           0       -4.311804   -0.395029   -0.108473
     27          6           0       -3.573175   -1.506172   -0.555583
     28          6           0       -2.207757   -1.423522   -0.817741
     29          6           0       -5.767055   -0.492986    0.161708
     30          6           0       -6.374430    0.180282    1.234669
     31          6           0       -7.747547    0.050703    1.435622
     32          6           0       -8.479887   -0.754475    0.559163
     33          7           0       -7.930647   -1.404902   -0.475762
     34          6           0       -6.613403   -1.266114   -0.657369
     35          1           0        1.562633    2.784862    2.782997
     36          1           0        0.455512    1.120133    1.277176
     37          1           0        1.741964    3.425034   -2.145244
     38          1           0       -0.533210    1.673236   -1.966335
     39          1           0        1.026164    0.980768   -2.347778
     40          1           0        2.253519   -0.709468   -2.224209
     41          1           0        2.652841   -0.032748   -0.628035
     42          1           0        5.498614   -5.432494    0.310698
     43          1           0        5.353012   -4.882820    2.755372
     44          1           0        4.047056   -2.933284    3.539542
     45          1           0        2.828270   -1.460272    1.944320
     46          1           0       -1.749104    1.861731   -0.019942
     47          1           0       -4.153490    1.705435    0.395708
     48          1           0       -4.071563   -2.468597   -0.686164
     49          1           0       -1.669644   -2.307972   -1.148542
     50          1           0       -5.770766    0.781022    1.918945
     51          1           0       -8.243709    0.556474    2.266506
     52          1           0       -9.558870   -0.884634    0.693559
     53          1           0       -6.196373   -1.788671   -1.524779
 ---------------------------------------------------------------------

 SCF Done:  E(RB3LYP) =  -1911.30753299     A.U. after    1 cycles

 The electronic state is 1-A.
 Alpha  occ. eigenvalues -- -101.56684 -24.73482 -19.13618 -14.41509 -14.39782
 Alpha  occ. eigenvalues --  -14.39312 -14.35090 -14.33216 -10.31703 -10.30459
 Alpha  occ. eigenvalues --  -10.27824 -10.26776 -10.26440 -10.25266 -10.23802
 Alpha  occ. eigenvalues --  -10.23501 -10.23361 -10.23000 -10.22928 -10.22880
 Alpha  occ. eigenvalues --  -10.22823 -10.21590 -10.21553 -10.21536 -10.21385
 Alpha  occ. eigenvalues --  -10.21191 -10.21013 -10.20726 -10.20682 -10.20677
 Alpha  occ. eigenvalues --  -10.20519 -10.20340 -10.20140 -10.19722  -9.48482
 Alpha  occ. eigenvalues --   -7.24770  -7.23761  -7.23710  -1.25398  -1.09775
 Alpha  occ. eigenvalues --   -1.06829  -0.97655  -0.94793  -0.92901  -0.91961
 Alpha  occ. eigenvalues --   -0.87772  -0.86829  -0.86721  -0.82368  -0.80631
 Alpha  occ. eigenvalues --   -0.79076  -0.78057  -0.77252  -0.77072  -0.76501
 Alpha  occ. eigenvalues --   -0.75350  -0.74043  -0.72405  -0.66625  -0.65748
 Alpha  occ. eigenvalues --   -0.65190  -0.64656  -0.63452  -0.62725  -0.62077
 Alpha  occ. eigenvalues --   -0.61600  -0.59573  -0.57376  -0.57221  -0.54844
 Alpha  occ. eigenvalues --   -0.53889  -0.53351  -0.53026  -0.52723  -0.51994
 Alpha  occ. eigenvalues --   -0.50879  -0.49891  -0.49433  -0.49197  -0.48349
 Alpha  occ. eigenvalues --   -0.47735  -0.46977  -0.46892  -0.46260  -0.46095
 Alpha  occ. eigenvalues --   -0.45656  -0.45135  -0.44894  -0.44322  -0.44088
 Alpha  occ. eigenvalues --   -0.43614  -0.43375  -0.42380  -0.41948  -0.40942
 Alpha  occ. eigenvalues --   -0.40723  -0.40304  -0.40021  -0.39417  -0.38392
 Alpha  occ. eigenvalues --   -0.38145  -0.37894  -0.37032  -0.36981  -0.36096
 Alpha  occ. eigenvalues --   -0.35875  -0.35509  -0.33457  -0.33368  -0.31963
 Alpha  occ. eigenvalues --   -0.31496  -0.29330  -0.28615  -0.28290  -0.27645
 Alpha  occ. eigenvalues --   -0.26950  -0.26918  -0.26712  -0.26102  -0.25245
 Alpha  occ. eigenvalues --   -0.23828  -0.23322
 Alpha virt. eigenvalues --   -0.05469  -0.05089  -0.04501  -0.03909  -0.03336
 Alpha virt. eigenvalues --   -0.02553  -0.01283   0.00396   0.00499   0.01643
 Alpha virt. eigenvalues --    0.03163   0.03661   0.05077   0.05606   0.06456

 Mulliken atomic charges:
              1
     1  F   -0.138821
     2  C    0.222413
     3  C    0.038628
     4  C    0.035757
     5  C   -0.086093
     6  C    0.118996
     7  C   -0.182680
     8  Cl  -0.046294
     9  C    0.151971
    10  N   -0.283930
    11  C    0.129574
    12  O   -0.234059
    13  C    0.122932
    14  N   -0.228683
    15  N   -0.060434
    16  N   -0.180348
    17  C    0.011561
    18  C    0.045551
    19  C    0.038249
    20  C    0.040170
    21  C    0.030372
    22  C    0.213787
    23  C    0.102360
    24  C    0.018774
    25  C    0.017027
    26  C    0.034768
    27  C    0.016765
    28  C    0.075636
    29  C   -0.042358
    30  C    0.074299
    31  C   -0.007952
    32  C    0.105723
    33  N   -0.172583
    34  C    0.099173
    35  H    0.000818
    36  H   -0.009035
    37  H   -0.026031
    38  H    0.053917
    39  H    0.043266
    40  H    0.063259
    41  H    0.056938
    42  H   -0.020848
    43  H   -0.025838
    44  H   -0.024804
    45  H   -0.033366
    46  H   -0.023104
    47  H   -0.036236
    48  H   -0.027666
    49  H   -0.009389
    50  H   -0.027825
    51  H   -0.022788
    52  H   -0.002570
    53  H   -0.008951
 Sum of Mulliken atomic charges =   0.00000

 Dipole moment (field-independent basis, Debye):
    X=             -1.2232    Y=              4.3236    Z=              2.4495  Tot=              5.1176
 Quadrupole moment (field-independent basis, Debye-Ang):
   XX=           -217.2225   YY=           -220.2647   ZZ=           -194.9547
   XY=             -7.4488   XZ=             -0.8987   YZ=            -11.9136

  Exact polarizability: 413.348   4.474 322.850 -12.965   9.101 271.931
 Approx polarizability: 537.162   4.361 519.870 -20.303  33.879 512.391

                     1                      2                      3
                     A                      A                      A
 Frequencies --    11.2013                13.7324                17.4360
 Red. masses --     8.3266                 7.8056                 6.8570
 Frc consts  --     0.0006                 0.0009                 0.0012
 IR Inten    --     0.2970                 1.3460                 0.4799

                     4                      5                      6
                     A                      A                      A
 Frequencies --    19.4416                25.4953                36.8251
 Red. masses --     5.0369                 6.9237                 6.1727
 Frc consts  --     0.0011                 0.0027                 0.0049
 IR Inten    --     0.4012                 0.6759                 0.6555

                     7                      8                      9
                     A                      A                      A
 Frequencies --    50.4215                64.3459                65.0074
 Red. masses --     6.7656                 6.1493                 5.6964
 Frc consts  --     0.0101                 0.0150                 0.0142
 IR Inten    --     0.6887                 1.3612                 0.7015

                    10                     11                     12
                     A                      A                      A
 Frequencies --    81.9359                96.4121               115.6282
 Red. masses --     4.9571                 5.9747                 6.4546
 Frc consts  --     0.0196                 0.0327                 0.0508
 IR Inten    --     2.2603                 0.1261                 1.1311

                    13                     14                     15
                     A                      A                      A
 Frequencies --   126.4385               154.3876               170.1317
 Red. masses --     7.6346                 8.1652                 5.5480
 Frc consts  --     0.0719                 0.1147                 0.0946
 IR Inten    --     0.2195                 1.4429                 0.7314

                    16                     17                     18
                     A                      A                      A
 Frequencies --   174.9815               211.3400               219.4220
 Red. masses --     6.0108                 6.7129                 6.1519
 Frc consts  --     0.1084                 0.1767                 0.1745
 IR Inten    --     0.6150                 0.8370                 1.5870

                    19                     20                     21
                     A                      A                      A
 Frequencies --   229.9219               238.7513               253.1007
 Red. masses --     5.2555                 4.5211                 6.2759
 Frc consts  --     0.1637                 0.1518                 0.2369
 IR Inten    --     1.0227                 1.3966                 1.0155

                    22                     23                     24
                     A                      A                      A
 Frequencies --   266.4281               296.5954               335.3996
 Red. masses --     4.0754                 4.5539                 4.3870
 Frc consts  --     0.1704                 0.2360                 0.2908
 IR Inten    --     2.9853                 2.1986                 0.9127

                    25                     26                     27
                     A                      A                      A
 Frequencies --   347.2557               354.7430               381.4079
 Red. masses --     7.7429                 4.9787                 6.7552
 Frc consts  --     0.5501                 0.3691                 0.5790
 IR Inten    --     1.7797                 4.5324                 6.9583

                    28                     29                     30
                     A                      A                      A
 Frequencies --   392.1405               413.4012               417.9053
 Red. masses --     7.3837                 3.2948                 3.1842
 Frc consts  --     0.6690                 0.3318                 0.3276
 IR Inten    --     5.4726                 3.3148                 3.1172

                    31                     32                     33
                     A                      A                      A
 Frequencies --   427.1820               438.9789               445.6453
 Red. masses --     3.1424                 2.8900                 4.4802
 Frc consts  --     0.3379                 0.3281                 0.5242
 IR Inten    --     0.5756                 2.2029                 0.0990

                    34                     35                     36
                     A                      A                      A
 Frequencies --   453.8456               476.8204               512.6622
 Red. masses --     3.1392                 4.3040                 6.9633
 Frc consts  --     0.3810                 0.5765                 1.0783
 IR Inten    --     2.5068                 1.5759                 6.9991

                    37                     38                     39
                     A                      A                      A
 Frequencies --   518.7061               538.2827               544.4754
 Red. masses --     4.2225                 5.3765                 5.4957
 Frc consts  --     0.6694                 0.9178                 0.9599
 IR Inten    --     3.7366                 0.1070                 7.2793

                    40                     41                     42
                     A                      A                      A
 Frequencies --   565.8162               577.4274               583.6037
 Red. masses --     3.4607                 3.6872                 3.9969
 Frc consts  --     0.6528                 0.7243                 0.8021
 IR Inten    --     6.5637                 2.0553                 4.0154

                    43                     44                     45
                     A                      A                      A
 Frequencies --   587.2970               598.7086               626.7332
 Red. masses --     3.9146                 4.9692                 7.3216
 Frc consts  --     0.7955                 1.0495                 1.6944
 IR Inten    --     0.8390                17.1166                 5.0800

                    46                     47                     48
                     A                      A                      A
 Frequencies --   642.2908               652.1889               669.6740
 Red. masses --     6.6313                 6.3713                 7.4990
 Frc consts  --     1.6118                 1.5967                 1.9814
 IR Inten    --     4.2986                 0.6587                 4.3597

                    49                     50                     51
                     A                      A                      A
 Frequencies --   681.5709               713.3233               723.6011
 Red. masses --     6.1792                 5.5584                 4.1675
 Frc consts  --     1.6912                 1.6664                 1.2856
 IR Inten    --    21.1490                 7.2260                 5.0525

                    52                     53                     54
                     A                      A                      A
 Frequencies --   730.6522               738.9337               749.0577
 Red. masses --     1.9832                 5.7377                 3.8973
 Frc consts  --     0.6238                 1.8459                 1.2884
 IR Inten    --    19.2279                 3.6954                 9.0444

                    55                     56                     57
                     A                      A                      A
 Frequencies --   759.8636               765.6430               786.2743
 Red. masses --     1.4021                 4.8907                 3.5039
 Frc consts  --     0.4770                 1.6892                 1.2763
 IR Inten    --    40.1766                27.5636                 1.5771

                    58                     59                     60
                     A                      A                      A
 Frequencies --   788.4292               800.7601               822.1532
 Red. masses --     4.9289                 5.8636                 1.6658
 Frc consts  --     1.8052                 2.2152                 0.6634
 IR Inten    --     3.4214                 7.1799                28.2558

                    61                     62                     63
                     A                      A                      A
 Frequencies --   831.9896               837.9162               844.3772
 Red. masses --     3.1793                 1.4446                 1.6732
 Frc consts  --     1.2967                 0.5976                 0.7029
 IR Inten    --    14.0345                16.7304                19.2562

                    64                     65                     66
                     A                      A                      A
 Frequencies --   862.3554               864.6084               872.5002
 Red. masses --     1.7620                 1.5684                 2.3276
 Frc consts  --     0.7720                 0.6908                 1.0440
 IR Inten    --    14.9362                 0.3394                19.0074

                    67                     68                     69
                     A                      A                      A
 Frequencies --   898.4765               904.9296               922.4374
 Red. masses --     1.9471                 3.4666                 4.7053
 Frc consts  --     0.9261                 1.6725                 2.3589
 IR Inten    --     6.4701                11.9850                 2.6666

                    70                     71                     72
                     A                      A                      A
 Frequencies --   947.2133               959.0527               961.0227
 Red. masses --     1.3440                 1.3975                 3.3723
 Frc consts  --     0.7105                 0.7573                 1.8350
 IR Inten    --     0.4387                 4.7882                82.2240

                    73                     74                     75
                     A                      A                      A
 Frequencies --   965.8845               973.8830               977.1005
 Red. masses --     1.3458                 1.4179                 1.4047
 Frc consts  --     0.7398                 0.7923                 0.7902
 IR Inten    --     0.8300                 0.6087                 3.1212

                    76                     77                     78
                     A                      A                      A
 Frequencies --   983.2788               998.2713              1003.8146
 Red. masses --     1.3668                 1.2914                 1.3899
 Frc consts  --     0.7786                 0.7582                 0.8251
 IR Inten    --     1.0639                 0.0522                 0.3612

                    79                     80                     81
                     A                      A                      A
 Frequencies --  1008.2295              1015.6073              1025.0178
 Red. masses --     2.2331                 5.1590                 2.0092
 Frc consts  --     1.3374                 3.1352                 1.2437
 IR Inten    --    56.9559                 8.4952                 9.4381

                    82                     83                     84
                     A                      A                      A
 Frequencies --  1033.5021              1047.6107              1073.5983
 Red. masses --     3.3115                 3.7957                 2.6699
 Frc consts  --     2.0840                 2.4544                 1.8132
 IR Inten    --     5.9183                 0.9121                16.3736

                    85                     86                     87
                     A                      A                      A
 Frequencies --  1079.1847              1093.0630              1127.8630
 Red. masses --     1.9496                 3.1900                 2.1890
 Frc consts  --     1.3378                 2.2456                 1.6406
 IR Inten    --     0.3738                73.9273                 2.8494

                    88                     89                     90
                     A                      A                      A
 Frequencies --  1131.9637              1136.7170              1142.1356
 Red. masses --     3.0209                 1.4114                 1.2728
 Frc consts  --     2.2806                 1.0745                 0.9782
 IR Inten    --    24.9869                 3.2174                 7.0509

                    91                     92                     93
                     A                      A                      A
 Frequencies --  1146.2013              1149.0244              1177.6236
 Red. masses --     1.4327                 1.3963                 1.5600
 Frc consts  --     1.1090                 1.0862                 1.2746
 IR Inten    --     2.4474                 7.3624                 8.0051

                    94                     95                     96
                     A                      A                      A
 Frequencies --  1205.0634              1208.6355              1219.8321
 Red. masses --     2.0759                 1.2193                 1.4671
 Frc consts  --     1.7761                 1.0494                 1.2862
 IR Inten    --    10.3379                66.6792                42.9820

                    97                     98                     99
                     A                      A                      A
 Frequencies --  1222.5290              1256.2604              1269.4995
 Red. masses --     1.5740                 2.7602                 2.4891
 Frc consts  --     1.3860                 2.5666                 2.3635
 IR Inten    --   191.2690                57.1529                14.1609

                   100                    101                    102
                     A                      A                      A
 Frequencies --  1271.0801              1292.1623              1292.8109
 Red. masses --     1.7743                 3.6817                 3.3297
 Frc consts  --     1.6889                 3.6218                 3.2789
 IR Inten    --    32.3870                 4.0634                88.9721

                   103                    104                    105
                     A                      A                      A
 Frequencies --  1294.7733              1313.3012              1318.6349
 Red. masses --     1.7396                 2.6064                 1.6777
 Frc consts  --     1.7183                 2.6486                 1.7187
 IR Inten    --     8.1860                 6.6408                64.5021

                   106                    107                    108
                     A                      A                      A
 Frequencies --  1324.0709              1327.3723              1335.7047
 Red. masses --     2.4010                 2.5906                 2.3680
 Frc consts  --     2.4801                 2.6893                 2.4892
 IR Inten    --     6.0838                12.1270                53.5722

                   109                    110                    111
                     A                      A                      A
 Frequencies --  1345.8819              1357.9691              1371.3483
 Red. masses --     1.5956                 1.7573                 2.5495
 Frc consts  --     1.7029                 1.9093                 2.8249
 IR Inten    --    37.0586                 2.0954                31.1371

                   112                    113                    114
                     A                      A                      A
 Frequencies --  1377.2532              1404.8944              1427.4503
 Red. masses --     3.6618                 1.9671                 2.1604
 Frc consts  --     4.0923                 2.2875                 2.5936
 IR Inten    --    27.7003               220.1655                10.4466

                   115                    116                    117
                     A                      A                      A
 Frequencies --  1430.6582              1433.9033              1437.3864
 Red. masses --     3.2101                 2.6420                 2.6532
 Frc consts  --     3.8712                 3.2005                 3.2298
 IR Inten    --     2.9629                33.7020                 7.6107

                   118                    119                    120
                     A                      A                      A
 Frequencies --  1441.3301              1460.2980              1469.2277
 Red. masses --     2.3159                 2.8742                 1.1191
 Frc consts  --     2.8346                 3.6111                 1.4234
 IR Inten    --    50.8292                50.0614                25.1958

                   121                    122                    123
                     A                      A                      A
 Frequencies --  1489.9367              1502.5506              1529.9798
 Red. masses --     3.5902                 2.3009                 3.7939
 Frc consts  --     4.6957                 3.0606                 5.2324
 IR Inten    --    24.8471                64.6630                25.3390

                   124                    125                    126
                     A                      A                      A
 Frequencies --  1534.0482              1547.4812              1602.9261
 Red. masses --     3.5055                 2.8206                 5.5876
 Frc consts  --     4.8604                 3.9797                 8.4586
 IR Inten    --   164.2949                85.0845                 4.9463

                   127                    128                    129
                     A                      A                      A
 Frequencies --  1621.7262              1630.9643              1635.8964
 Red. masses --     6.6956                 7.5691                 7.3616
 Frc consts  --    10.3751                11.8627                11.6074
 IR Inten    --     3.7443                 1.5419                 2.7345

                   130                    131                    132
                     A                      A                      A
 Frequencies --  1637.8990              1654.3829              1660.2823
 Red. masses --     6.2397                 7.0544                 6.1622
 Frc consts  --     9.8626                11.3758                10.0081
 IR Inten    --     1.5494                11.4898                26.4094

                   133                    134                    135
                     A                      A                      A
 Frequencies --  1669.2642              1775.4503              3050.9771
 Red. masses --     7.4693                12.1033                 1.0639
 Frc consts  --    12.2626                22.4788                 5.8346
 IR Inten    --    14.2136               236.5578                24.0396

                   136                    137                    138
                     A                      A                      A
 Frequencies --  3057.3278              3093.6825              3118.5014
 Red. masses --     1.0632                 1.1014                 1.1000
 Frc consts  --     5.8553                 6.2111                 6.3029
 IR Inten    --    18.4358                 8.1248                 3.6162

                   139                    140                    141
                     A                      A                      A
 Frequencies --  3152.5976              3156.0867              3179.3049
 Red. masses --     1.0882                 1.0913                 1.0890
 Frc consts  --     6.3722                 6.4047                 6.4855
 IR Inten    --    27.1382                 6.4721                20.1972

                   142                    143                    144
                     A                      A                      A
 Frequencies --  3180.0193              3185.2466              3191.1454
 Red. masses --     1.0858                 1.0878                 1.0914
 Frc consts  --     6.4696                 6.5024                 6.5480
 IR Inten    --     1.7108                 2.5371                 0.5809

                   145                    146                    147
                     A                      A                      A
 Frequencies --  3192.4582              3194.0259              3199.3132
 Red. masses --     1.0901                 1.0899                 1.0956
 Frc consts  --     6.5461                 6.5509                 6.6073
 IR Inten    --     7.2107                11.6496                13.4263

                   148                    149                    150
                     A                      A                      A
 Frequencies --  3199.7451              3204.4549              3207.9684
 Red. masses --     1.0902                 1.0939                 1.0949
 Frc consts  --     6.5763                 6.6181                 6.6386
 IR Inten    --     7.3233                 4.2546                15.5698

                   151                    152                    153
                     A                      A                      A
 Frequencies --  3212.5680              3214.5010              3251.2159
 Red. masses --     1.0971                 1.0956                 1.0931
 Frc consts  --     6.6714                 6.6698                 6.8077
 IR Inten    --     7.1034                 0.5786                 0.2744

 - Thermochemistry -
 -------------------
 Temperature   298.150 Kelvin.  Pressure   1.00000 Atm.
 Atom     1 has atomic number  9 and mass  18.99840

 Molecular mass:   471.12622 amu.
 Principal axes and moments of inertia in atomic units:
                           1         2         3
     Eigenvalues --  ******************************
           X            0.99977  -0.02161   0.00045
           Y            0.02161   0.99974  -0.00787
           Z           -0.00028   0.00787   0.99997
 This molecule is an asymmetric top.
 Rotational symmetry number  1.
 Warning -- assumption of classical behavior for rotation
           may cause significant error
 Rotational temperatures (Kelvin)      0.00533     0.00297     0.00212
 Rotational constants (GHZ):           0.11112     0.06185     0.04421
 Zero-point vibrational energy    1054759.1 (Joules/Mol)
                                  252.09347 (Kcal/Mol)
 Warning -- explicit consideration of  44 degrees of freedom as
           vibrations may cause significant error
 Vibrational temperatures:     16.12    19.76    25.09    27.97    36.68
          (Kelvin)             52.98    72.55    92.58    93.53   117.89
                              138.72   166.36   181.92   222.13   244.78
                              251.76   304.07   315.70   330.81   343.51
                              364.16   383.33   426.73   482.56   499.62
                              510.40   548.76   564.20   594.79   601.27
                              614.62   631.59   641.18   652.98   686.04
                              737.61   746.30   774.47   783.38   814.08
                              830.79   839.67   844.99   861.41   901.73
                              924.11   938.35   963.51   980.63  1026.31
                             1041.10  1051.24  1063.16  1077.73  1093.27
                             1101.59  1131.27  1134.37  1152.11  1182.89
                             1197.05  1205.57  1214.87  1240.74  1243.98
                             1255.33  1292.71  1301.99  1327.18  1362.83
                             1379.86  1382.70  1389.69  1401.20  1405.83
                             1414.72  1436.29  1444.26  1450.62  1461.23
                             1474.77  1486.98  1507.28  1544.67  1552.70
                             1572.67  1622.74  1628.64  1635.48  1643.28
                             1649.13  1653.19  1694.34  1733.82  1738.95
                             1755.06  1758.94  1807.48  1826.52  1828.80
                             1859.13  1860.06  1862.89  1889.55  1897.22
                             1905.04  1909.79  1921.78  1936.42  1953.81
                             1973.06  1981.56  2021.33  2053.78  2058.40
                             2063.06  2068.08  2073.75  2101.04  2113.89
                             2143.68  2161.83  2201.30  2207.15  2226.48
                             2306.25  2333.30  2346.59  2353.69  2356.57
                             2380.28  2388.77  2401.70  2554.47  4389.67
                             4398.81  4451.11  4486.82  4535.88  4540.90
                             4574.30  4575.33  4582.85  4591.34  4593.23
                             4595.49  4603.09  4603.71  4610.49  4615.55
                             4622.16  4624.94  4677.77

 Zero-point correction=                           0.401737 (Hartree/Particle)
 Thermal correction to Energy=                    0.429221
 Thermal correction to Enthalpy=                  0.430165
 Thermal correction to Gibbs Free Energy=         0.337744
 Sum of electronic and zero-point Energies=          -1910.905796
 Sum of electronic and thermal Energies=             -1910.878312
 Sum of electronic and thermal Enthalpies=           -1910.877368
 Sum of electronic and thermal Free Energies=        -1910.969789

                     E (Thermal)             CV                S
                      KCal/Mol        Cal/Mol-Kelvin    Cal/Mol-Kelvin
 Total                  269.340            106.898            194.517
 Electronic               0.000              0.000              0.000
 Translational            0.889              2.981             44.338
 Rotational               0.889              2.981             38.201
 Vibrational            267.563            100.936            111.978
 Vibration     1          0.593              1.987              7.786
 Vibration     2          0.593              1.986              7.381
 Vibration     3          0.593              1.986              6.907
 Vibration     4          0.593              1.986              6.690
 Vibration     5          0.593              1.985              6.152
 Vibration     6          0.594              1.982              5.423
 Vibration     7          0.595              1.977              4.801
 Vibration     8          0.597              1.971              4.319
 Vibration     9          0.597              1.971              4.299
 Vibration    10          0.600              1.962              3.844
 Vibration    11          0.603              1.952              3.526
 Vibration    12          0.608              1.936              3.172
 Vibration    13          0.611              1.927              3.000
 Vibration    14          0.620              1.898              2.617
 Vibration    15          0.625              1.879              2.434
 Vibration    16          0.627              1.873              2.381
 Vibration    17          0.643              1.824              2.032
 Vibration    18          0.647              1.812              1.964
 Vibration    19          0.652              1.795              1.880
 Vibration    20          0.657              1.781              1.812
 Vibration    21          0.664              1.758              1.709
 Vibration    22          0.672              1.735              1.619
 Vibration    23          0.690              1.680              1.436
 Vibration    24          0.717              1.605              1.234
 Vibration    25          0.725              1.581              1.179
 Vibration    26          0.731              1.566              1.145
 Vibration    27          0.751              1.510              1.034
 Vibration    28          0.760              1.487              0.992
 Vibration    29          0.777              1.441              0.915
 Vibration    30          0.781              1.431              0.899
 Vibration    31          0.789              1.411              0.868
 Vibration    32          0.799              1.385              0.830
 Vibration    33          0.805              1.371              0.809
 Vibration    34          0.812              1.352              0.784
 Vibration    35          0.833              1.301              0.719
 Vibration    36          0.868              1.222              0.627
 Vibration    37          0.874              1.209              0.613
 Vibration    38          0.893              1.165              0.569
 Vibration    39          0.900              1.152              0.556
 Vibration    40          0.922              1.105              0.512
 Vibration    41          0.934              1.080              0.490
 Vibration    42          0.940              1.067              0.479
 Vibration    43          0.944              1.059              0.472
 Vibration    44          0.957              1.035              0.452

 Optimization completed.
    -- Stationary point found.
 Normal termination of Gaussian 09 at Tue Sep  6 09:30:41 2022.
