 Gaussian 09, Revision C.01,
 Gaussian 09:  EM64L-G09RevC.01 23-Sep-2011

 -------------------------
 #p opt freq b3lyp/cc-pvdz
 -------------------------

 (Enter /opt/gaussian/l101.exe)
 ---------
 Mol31.log
 ---------
 Charge =  0 Multiplicity = 1

 SCF Done:  E(RB3LYP) =  -1911.30318766     A.U. after   16 cycles
 SCF Done:  E(RB3LYP) =  -1911.31411848     A.U. after   13 cycles
 SCF Done:  E(RB3LYP) =  -1911.31463344     A.U. after   13 cycles
 SCF Done:  E(RB3LYP) =  -1911.31457217     A.U. after   13 cycles
 SCF Done:  E(RB3LYP) =  -1911.31482807     A.U. after   13 cycles
 SCF Done:  E(RB3LYP) =  -1911.31487375     A.U. after   10 cycles
 SCF Done:  E(RB3LYP) =  -1911.31489013     A.U. after   10 cycles
 SCF Done:  E(RB3LYP) =  -1911.31489438     A.U. after   11 cycles
 SCF Done:  E(RB3LYP) =  -1911.31489668     A.U. after   10 cycles
 SCF Done:  E(RB3LYP) =  -1911.31489620     A.U. after   10 cycles
 SCF Done:  E(RB3LYP) =  -1911.31489647     A.U. after    8 cycles
 SCF Done:  E(RB3LYP) =  -1911.31489665     A.U. after    7 cycles
 SCF Done:  E(RB3LYP) =  -1911.31489667     A.U. after    6 cycles
 Optimization completed.
    -- Stationary point found.
 Normal termination of Gaussian 09 at Tue Sep  6 12:50:56 2022.

 -------------------------------------------------------------------
 #P Geom=AllCheck Guess=TCheck SCRF=Check GenChk RB3LYP/CC-pVDZ Freq
 -------------------------------------------------------------------

 Structure from the checkpoint file:  /home/scr/lqcapf-6/Gau-279289.chk
 ---------
 Mol31.log
 ---------
 Charge =  0 Multiplicity = 1

                         Standard orientation:
 ---------------------------------------------------------------------
 Center     Atomic      Atomic             Coordinates (Angstroms)
 Number     Number       Type             X           Y           Z
 ---------------------------------------------------------------------
      1          9           0       -4.072149    4.579684   -1.172661
      2          6           0       -2.897200    4.063568   -0.763559
      3          6           0       -2.020601    4.883456   -0.060742
      4          6           0       -0.813290    4.321933    0.360560
      5          6           0       -0.485763    2.992839    0.090603
      6          6           0       -1.389838    2.191713   -0.622658
      7          6           0       -2.610715    2.731191   -1.049738
      8          6           0       -1.047251    0.754032   -0.988593
      9          7           0       -0.396617   -0.021991    0.084791
     10          6           0       -1.107250   -0.557200    1.143252
     11          8           0       -0.584298   -1.186004    2.051689
     12          6           0       -2.638074   -0.379245    1.142092
     13          7           0       -3.300280   -1.346820    0.284388
     14          7           0       -3.992495   -0.934141   -0.822396
     15          7           0       -4.513636   -1.956772   -1.411786
     16          6           0       -4.177897   -3.089595   -0.697003
     17          6           0       -4.499614   -4.442430   -0.911977
     18          6           0       -4.003813   -5.366105   -0.003107
     19          6           0       -3.199872   -4.967267    1.096843
     20          6           0       -2.868631   -3.637969    1.326709
     21          6           0       -3.383790   -2.708834    0.405806
     22          6           0        1.021838   -0.250394    0.010264
     23          6           0        1.583863   -0.779939   -1.159048
     24          6           0        2.960584   -0.980609   -1.254594
     25          6           0        3.816465   -0.675727   -0.181626
     26          6           0        3.235615   -0.161138    0.992277
     27          6           0        1.861512    0.049251    1.091781
     28          6           0        5.280205   -0.894589   -0.282416
     29          6           0        5.993078   -0.638301   -1.465280
     30          6           0        7.368015   -0.864328   -1.498558
     31          6           0        7.997105   -1.337476   -0.343900
     32          7           0        7.343789   -1.597089    0.796950
     33          6           0        6.024582   -1.380323    0.810683
     34         17           0        0.322499    5.322950    1.251782
     35          1           0       -2.279757    5.920022    0.150430
     36          1           0        0.467766    2.592137    0.432186
     37          1           0       -3.343258    2.126465   -1.587428
     38          1           0       -1.951885    0.240070   -1.338388
     39          1           0       -0.348898    0.765942   -1.836250
     40          1           0       -2.955461   -0.536382    2.181966
     41          1           0       -2.967138    0.613546    0.813973
     42          1           0       -5.114611   -4.737682   -1.763261
     43          1           0       -4.229575   -6.426405   -0.133441
     44          1           0       -2.824512   -5.732571    1.779708
     45          1           0       -2.228060   -3.328704    2.153023
     46          1           0        0.940562   -1.060841   -1.995337
     47          1           0        3.370043   -1.417914   -2.167393
     48          1           0        3.872577    0.106764    1.837353
     49          1           0        1.437967    0.447490    2.012717
     50          1           0        5.476848   -0.243086   -2.343238
     51          1           0        7.948079   -0.665999   -2.402138
     52          1           0        9.077333   -1.516885   -0.333138
     53          1           0        5.512316   -1.626615    1.746753
 ---------------------------------------------------------------------

 SCF Done:  E(RB3LYP) =  -1911.31489667     A.U. after    1 cycles

 The electronic state is 1-A.
 Alpha  occ. eigenvalues -- -101.55660 -24.72289 -19.13212 -14.42604 -14.40469
 Alpha  occ. eigenvalues --  -14.39102 -14.36135 -14.33223 -10.31243 -10.29434
 Alpha  occ. eigenvalues --  -10.27159 -10.26016 -10.25459 -10.24845 -10.24183
 Alpha  occ. eigenvalues --  -10.23252 -10.22893 -10.22842 -10.22246 -10.21979
 Alpha  occ. eigenvalues --  -10.21717 -10.21649 -10.21605 -10.21559 -10.21510
 Alpha  occ. eigenvalues --  -10.21191 -10.21028 -10.20983 -10.20827 -10.20819
 Alpha  occ. eigenvalues --  -10.20813 -10.20778 -10.20689 -10.20368  -9.47476
 Alpha  occ. eigenvalues --   -7.23741  -7.22763  -7.22720  -1.24056  -1.10656
 Alpha  occ. eigenvalues --   -1.06268  -0.96848  -0.94804  -0.93587  -0.91009
 Alpha  occ. eigenvalues --   -0.87701  -0.87354  -0.85796  -0.82260  -0.79770
 Alpha  occ. eigenvalues --   -0.78939  -0.78444  -0.77633  -0.76757  -0.75783
 Alpha  occ. eigenvalues --   -0.75553  -0.74130  -0.72093  -0.66381  -0.65793
 Alpha  occ. eigenvalues --   -0.64716  -0.63748  -0.63407  -0.62845  -0.62053
 Alpha  occ. eigenvalues --   -0.61416  -0.60097  -0.57661  -0.55359  -0.54546
 Alpha  occ. eigenvalues --   -0.53946  -0.53575  -0.52728  -0.51888  -0.51568
 Alpha  occ. eigenvalues --   -0.50983  -0.49929  -0.49641  -0.48263  -0.47995
 Alpha  occ. eigenvalues --   -0.47746  -0.47497  -0.46141  -0.45991  -0.45762
 Alpha  occ. eigenvalues --   -0.45120  -0.45027  -0.44828  -0.43892  -0.43491
 Alpha  occ. eigenvalues --   -0.43034  -0.42892  -0.42179  -0.40988  -0.40694
 Alpha  occ. eigenvalues --   -0.40617  -0.40330  -0.39958  -0.39190  -0.38417
 Alpha  occ. eigenvalues --   -0.38221  -0.37775  -0.37111  -0.36940  -0.36470
 Alpha  occ. eigenvalues --   -0.36239  -0.34432  -0.34037  -0.32578  -0.32534
 Alpha  occ. eigenvalues --   -0.31218  -0.29124  -0.28478  -0.27800  -0.27595
 Alpha  occ. eigenvalues --   -0.26975  -0.26859  -0.26256  -0.26110  -0.26038
 Alpha  occ. eigenvalues --   -0.24384  -0.23636
 Alpha virt. eigenvalues --   -0.05575  -0.05410  -0.04033  -0.03299  -0.03223
 Alpha virt. eigenvalues --   -0.02472  -0.01642  -0.00266   0.00898   0.01808
 Alpha virt. eigenvalues --    0.02389   0.05346   0.06134   0.06424   0.07416

 Mulliken atomic charges:
              1
     1  F   -0.157666
     2  C    0.148735
     3  C    0.102762
     4  C   -0.135948
     5  C    0.133605
     6  C   -0.095102
     7  C    0.014395
     8  C    0.156228
     9  N   -0.279827
    10  C    0.134454
    11  O   -0.254189
    12  C    0.167354
    13  N   -0.243263
    14  N   -0.069705
    15  N   -0.176500
    16  C    0.010182
    17  C    0.043931
    18  C    0.039999
    19  C    0.044174
    20  C    0.030377
    21  C    0.184772
    22  C    0.074171
    23  C    0.048062
    24  C    0.023347
    25  C    0.036095
    26  C    0.018655
    27  C    0.087958
    28  C   -0.045567
    29  C    0.074955
    30  C   -0.007831
    31  C    0.106098
    32  N   -0.172537
    33  C    0.099792
    34  Cl  -0.073517
    35  H   -0.001690
    36  H   -0.027681
    37  H   -0.002371
    38  H    0.038944
    39  H    0.052760
    40  H    0.046572
    41  H    0.055964
    42  H   -0.019545
    43  H   -0.022902
    44  H   -0.018507
    45  H   -0.007346
    46  H   -0.022269
    47  H   -0.032779
    48  H   -0.027817
    49  H   -0.021171
    50  H   -0.027574
    51  H   -0.022328
    52  H   -0.002293
    53  H   -0.006417
 Sum of Mulliken atomic charges =   0.00000

 Dipole moment (field-independent basis, Debye):
    X=              0.7308    Y=             -0.2342    Z=             -1.5609  Tot=              1.7394
 Quadrupole moment (field-independent basis, Debye-Ang):
   XX=           -214.6521   YY=           -198.0568   ZZ=           -198.5787
   XY=              8.6508   XZ=            -21.6627   YZ=              2.9851

  Exact polarizability: 414.118  -4.422 329.606  30.118   7.995 252.401
 Approx polarizability: 580.269 -21.171 492.986  87.712   6.331 494.980

                     1                      2                      3
                     A                      A                      A
 Frequencies --    11.1449                13.7690                20.3023
 Red. masses --    11.7576                 7.7515                 8.2941
 Frc consts  --     0.0009                 0.0009                 0.0020
 IR Inten    --     0.0401                 0.1187                 0.0305

                     4                      5                      6
                     A                      A                      A
 Frequencies --    23.8061                31.7508                38.2226
 Red. masses --     7.1659                 4.6720                 6.8384
 Frc consts  --     0.0024                 0.0028                 0.0059
 IR Inten    --     1.3590                 0.8108                 1.6446

                     7                      8                      9
                     A                      A                      A
 Frequencies --    44.5213                64.9632                74.1881
 Red. masses --     7.5986                 6.7179                 3.9445
 Frc consts  --     0.0089                 0.0167                 0.0128
 IR Inten    --     0.3693                 3.7722                 0.6564

                    10                     11                     12
                     A                      A                      A
 Frequencies --    76.4565                91.9456               122.9372
 Red. masses --     6.7047                 7.1084                 7.2935
 Frc consts  --     0.0231                 0.0354                 0.0649
 IR Inten    --     0.3926                 5.2196                 3.6564

                    13                     14                     15
                     A                      A                      A
 Frequencies --   136.5356               148.8440               164.2195
 Red. masses --     7.2007                 7.6559                 6.1959
 Frc consts  --     0.0791                 0.0999                 0.0984
 IR Inten    --     0.8624                 1.1181                 2.8336

                    16                     17                     18
                     A                      A                      A
 Frequencies --   189.8444               202.3152               230.3686
 Red. masses --     6.3725                 5.1781                 5.3058
 Frc consts  --     0.1353                 0.1249                 0.1659
 IR Inten    --     0.0346                 0.2985                 0.9002

                    19                     20                     21
                     A                      A                      A
 Frequencies --   237.4485               243.3583               244.4168
 Red. masses --     5.5995                 5.0337                 5.4582
 Frc consts  --     0.1860                 0.1756                 0.1921
 IR Inten    --     4.1540                 0.8997                 1.1918

                    22                     23                     24
                     A                      A                      A
 Frequencies --   263.7406               300.8096               308.3581
 Red. masses --     6.4940                 4.6919                 5.5714
 Frc consts  --     0.2661                 0.2501                 0.3121
 IR Inten    --     2.0701                 1.6060                 1.2236

                    25                     26                     27
                     A                      A                      A
 Frequencies --   338.1141               364.9794               409.7512
 Red. masses --     6.1048                 2.6582                 3.3655
 Frc consts  --     0.4112                 0.2086                 0.3329
 IR Inten    --     7.3878                 0.9589                 6.2768

                    28                     29                     30
                     A                      A                      A
 Frequencies --   410.8592               414.7453               422.3225
 Red. masses --    10.2714                 3.2059                 6.2973
 Frc consts  --     1.0216                 0.3249                 0.6617
 IR Inten    --     5.3004                 1.5835                 2.1108

                    31                     32                     33
                     A                      A                      A
 Frequencies --   424.1911               443.4705               446.6935
 Red. masses --     3.1607                 4.3489                 3.0392
 Frc consts  --     0.3351                 0.5039                 0.3573
 IR Inten    --     1.7392                 2.8969                 3.2186

                    34                     35                     36
                     A                      A                      A
 Frequencies --   470.7986               482.9666               512.2355
 Red. masses --     5.0260                 4.2306                 4.6893
 Frc consts  --     0.6564                 0.5814                 0.7249
 IR Inten    --     1.2639                 2.9987                 2.9881

                    37                     38                     39
                     A                      A                      A
 Frequencies --   518.2664               530.0080               531.4742
 Red. masses --     6.4893                 5.7694                 4.6891
 Frc consts  --     1.0270                 0.9549                 0.7804
 IR Inten    --     5.2426                 2.4630                 2.7097

                    40                     41                     42
                     A                      A                      A
 Frequencies --   556.5283               579.8759               583.8495
 Red. masses --     4.2723                 3.1805                 4.1278
 Frc consts  --     0.7796                 0.6301                 0.8290
 IR Inten    --     4.4311                 1.6877                 0.4820

                    43                     44                     45
                     A                      A                      A
 Frequencies --   586.8489               594.8203               620.8538
 Red. masses --     4.6143                 5.9488                 4.8684
 Frc consts  --     0.9363                 1.2401                 1.1057
 IR Inten    --     2.8303                 5.4265                33.3145

                    46                     47                     48
                     A                      A                      A
 Frequencies --   629.9149               651.0988               665.8438
 Red. masses --     6.9616                 7.0104                 5.1558
 Frc consts  --     1.6275                 1.7510                 1.3468
 IR Inten    --     2.9259                 0.7269                 4.4746

                    49                     50                     51
                     A                      A                      A
 Frequencies --   671.4500               693.0866               713.9166
 Red. masses --     8.0679                 3.0792                 5.5417
 Frc consts  --     2.1431                 0.8715                 1.6641
 IR Inten    --     2.7030                 9.0319                28.0164

                    52                     53                     54
                     A                      A                      A
 Frequencies --   730.0151               731.5695               758.0931
 Red. masses --     2.7382                 2.6095                 3.7633
 Frc consts  --     0.8598                 0.8228                 1.2743
 IR Inten    --    16.7389                10.1628                10.9644

                    55                     56                     57
                     A                      A                      A
 Frequencies --   768.7536               786.1770               793.3781
 Red. masses --     1.4543                 4.8439                 3.5130
 Frc consts  --     0.5064                 1.7640                 1.3028
 IR Inten    --    46.0945                10.1871                16.0581

                    58                     59                     60
                     A                      A                      A
 Frequencies --   795.5820               823.4594               827.8770
 Red. masses --     4.8110                 1.6721                 5.6042
 Frc consts  --     1.7941                 0.6680                 2.2630
 IR Inten    --     8.1575                22.7858                 4.1717

                    61                     62                     63
                     A                      A                      A
 Frequencies --   840.6468               858.4572               862.2410
 Red. masses --     1.2773                 2.2867                 1.7620
 Frc consts  --     0.5318                 0.9929                 0.7718
 IR Inten    --     2.7549                17.2913                 2.7708

                    64                     65                     66
                     A                      A                      A
 Frequencies --   881.0830               883.1054               885.1258
 Red. masses --     1.7524                 1.4951                 2.8555
 Frc consts  --     0.8015                 0.6870                 1.3181
 IR Inten    --    27.0614                 3.1692                35.7641

                    67                     68                     69
                     A                      A                      A
 Frequencies --   898.0505               906.4442               920.1735
 Red. masses --     2.2261                 1.4685                 4.3038
 Frc consts  --     1.0578                 0.7109                 2.1470
 IR Inten    --    12.2137                13.4482                 6.0743

                    70                     71                     72
                     A                      A                      A
 Frequencies --   947.4654               954.3681               966.5546
 Red. masses --     1.3454                 3.0555                 1.3503
 Frc consts  --     0.7116                 1.6397                 0.7433
 IR Inten    --     0.6206                48.0347                 0.7768

                    73                     74                     75
                     A                      A                      A
 Frequencies --   971.4495               976.9791               980.9405
 Red. masses --     1.3585                 1.4675                 2.5921
 Frc consts  --     0.7553                 0.8253                 1.4696
 IR Inten    --     2.1232                 0.8285                23.7328

                    76                     77                     78
                     A                      A                      A
 Frequencies --   981.2373              1004.2225              1006.0531
 Red. masses --     1.6244                 1.3906                 1.2922
 Frc consts  --     0.9215                 0.8263                 0.7706
 IR Inten    --    14.3806                 0.5288                 0.5698

                    79                     80                     81
                     A                      A                      A
 Frequencies --  1013.2241              1014.8847              1020.7826
 Red. masses --     4.9629                 4.9223                 3.1493
 Frc consts  --     3.0019                 2.9871                 1.9334
 IR Inten    --    16.8695                29.9995                 5.6401

                    82                     83                     84
                     A                      A                      A
 Frequencies --  1024.1724              1033.3285              1046.2892
 Red. masses --     2.0585                 3.0159                 3.8307
 Frc consts  --     1.2722                 1.8973                 2.4708
 IR Inten    --    14.8995                 4.5333                 1.9198

                    85                     86                     87
                     A                      A                      A
 Frequencies --  1078.5388              1085.9990              1103.8904
 Red. masses --     1.9832                 2.3472                 1.4352
 Frc consts  --     1.3592                 1.6310                 1.0304
 IR Inten    --     1.6562                44.8267                12.1922

                    88                     89                     90
                     A                      A                      A
 Frequencies --  1124.0732              1130.5612              1136.5518
 Red. masses --     2.7898                 1.7613                 1.3444
 Frc consts  --     2.0768                 1.3264                 1.0232
 IR Inten    --     1.5288                 7.0719                 4.5218

                    91                     92                     93
                     A                      A                      A
 Frequencies --  1141.2393              1144.2651              1157.8339
 Red. masses --     1.5455                 1.6164                 1.8282
 Frc consts  --     1.1860                 1.2470                 1.4440
 IR Inten    --    12.6794                23.0470                 1.8699

                    94                     95                     96
                     A                      A                      A
 Frequencies --  1176.6322              1199.6830              1219.9395
 Red. masses --     1.4051                 1.1457                 1.4528
 Frc consts  --     1.1462                 0.9715                 1.2739
 IR Inten    --     9.0684                 2.8706                 4.6826

                    97                     98                     99
                     A                      A                      A
 Frequencies --  1232.7726              1246.9833              1260.2071
 Red. masses --     1.4344                 1.6260                 2.2589
 Frc consts  --     1.2844                 1.4897                 2.1137
 IR Inten    --   117.1441                56.5267                28.1138

                   100                    101                    102
                     A                      A                      A
 Frequencies --  1275.9377              1291.5764              1298.0587
 Red. masses --     3.9817                 3.4723                 1.8369
 Frc consts  --     3.8192                 3.4127                 1.8236
 IR Inten    --    18.1298                 3.1738                 5.5149

                   103                    104                    105
                     A                      A                      A
 Frequencies --  1303.1065              1311.7393              1319.3176
 Red. masses --     5.4922                 2.5844                 1.7771
 Frc consts  --     5.4948                 2.6200                 1.8224
 IR Inten    --   114.3234                 3.9807                35.2407

                   106                    107                    108
                     A                      A                      A
 Frequencies --  1321.8194              1331.8527              1345.7767
 Red. masses --     1.6882                 3.7137                 1.5348
 Frc consts  --     1.7378                 3.8813                 1.6377
 IR Inten    --     0.7382                16.7574                20.7072

                   109                    110                    111
                     A                      A                      A
 Frequencies --  1352.1058              1356.8057              1367.8610
 Red. masses --     3.4373                 1.6628                 3.9263
 Frc consts  --     3.7025                 1.8035                 4.3283
 IR Inten    --     5.4343                 0.4172                17.1804

                   112                    113                    114
                     A                      A                      A
 Frequencies --  1382.4304              1414.5802              1421.0464
 Red. masses --     1.6809                 2.9207                 2.8113
 Frc consts  --     1.8927                 3.4435                 3.3449
 IR Inten    --    28.2481               127.6804                65.9957

                   115                    116                    117
                     A                      A                      A
 Frequencies --  1429.1082              1430.8888              1454.3937
 Red. masses --     2.6234                 7.3671                 1.1451
 Frc consts  --     3.1568                 8.8871                 1.4271
 IR Inten    --    18.8993                 6.7558                19.2516

                   118                    119                    120
                     A                      A                      A
 Frequencies --  1458.0038              1473.0814              1477.7760
 Red. masses --     2.9289                 1.7952                 2.1717
 Frc consts  --     3.6684                 2.2952                 2.7943
 IR Inten    --    54.8459                17.9892                85.8545

                   121                    122                    123
                     A                      A                      A
 Frequencies --  1485.9786              1487.0591              1502.5320
 Red. masses --     2.7596                 2.4997                 2.2946
 Frc consts  --     3.5902                 3.2568                 3.0521
 IR Inten    --    23.3036                53.5847                50.3120

                   124                    125                    126
                     A                      A                      A
 Frequencies --  1527.1424              1545.7402              1603.8350
 Red. masses --     3.5851                 2.9125                 5.5968
 Frc consts  --     4.9262                 4.1000                 8.4822
 IR Inten    --    11.3727                53.5014                 4.6316

                   127                    128                    129
                     A                      A                      A
 Frequencies --  1622.2586              1634.5574              1635.9726
 Red. masses --     6.7528                 7.4400                 7.1178
 Frc consts  --    10.4706                11.7118                11.2241
 IR Inten    --     5.6471                 3.8252               109.2029

                   130                    131                    132
                     A                      A                      A
 Frequencies --  1637.7706              1652.6797              1657.7066
 Red. masses --     6.2399                 7.2656                 6.2887
 Frc consts  --     9.8613                11.6923                10.1819
 IR Inten    --     1.1131               112.8772                13.1159

                   133                    134                    135
                     A                      A                      A
 Frequencies --  1665.4104              1751.1467              3081.1083
 Red. masses --     7.2704                11.1838                 1.0608
 Frc consts  --    11.8809                20.2061                 5.9333
 IR Inten    --    12.2540               240.5371                 9.8623

                   136                    137                    138
                     A                      A                      A
 Frequencies --  3085.1663              3125.5769              3152.3606
 Red. masses --     1.0615                 1.1058                 1.1057
 Frc consts  --     5.9531                 6.3648                 6.4737
 IR Inten    --     7.5281                 1.2044                 0.2192

                   139                    140                    141
                     A                      A                      A
 Frequencies --  3152.9602              3156.5626              3179.5930
 Red. masses --     1.0884                 1.0913                 1.0883
 Frc consts  --     6.3749                 6.4065                 6.4823
 IR Inten    --    26.4938                 6.7522                25.4060

                   142                    143                    144
                     A                      A                      A
 Frequencies --  3182.3052              3182.9788              3191.3385
 Red. masses --     1.0864                 1.0880                 1.0895
 Frc consts  --     6.4820                 6.4944                 6.5378
 IR Inten    --     3.5955                 0.1912                 7.2232

                   145                    146                    147
                     A                      A                      A
 Frequencies --  3196.2420              3197.8836              3200.5357
 Red. masses --     1.0907                 1.0955                 1.0972
 Frc consts  --     6.5653                 6.6005                 6.6221
 IR Inten    --    10.0231                 4.1065                17.4048

                   148                    149                    150
                     A                      A                      A
 Frequencies --  3204.4266              3211.8746              3217.8665
 Red. masses --     1.0926                 1.0958                 1.0962
 Frc consts  --     6.6104                 6.6605                 6.6879
 IR Inten    --     1.1992                 8.6168                 4.0154

                   151                    152                    153
                     A                      A                      A
 Frequencies --  3220.8252              3225.0238              3231.4193
 Red. masses --     1.0919                 1.0941                 1.0935
 Frc consts  --     6.6737                 6.7048                 6.7276
 IR Inten    --     0.9160                 3.2512                 1.2088

 - Thermochemistry -
 -------------------
 Temperature   298.150 Kelvin.  Pressure   1.00000 Atm.
 Atom     1 has atomic number  9 and mass  18.99840

 Molecular mass:   471.12622 amu.
 Principal axes and moments of inertia in atomic units:
                           1         2         3
     Eigenvalues --  ******************************
           X            0.99988   0.01433  -0.00500
           Y           -0.01434   0.99990  -0.00197
           Z            0.00497   0.00204   0.99999
 This molecule is an asymmetric top.
 Rotational symmetry number  1.
 Warning -- assumption of classical behavior for rotation
           may cause significant error
 Rotational temperatures (Kelvin)      0.00538     0.00343     0.00229
 Rotational constants (GHZ):           0.11208     0.07154     0.04778
 Zero-point vibrational energy    1055750.4 (Joules/Mol)
                                  252.33041 (Kcal/Mol)
 Warning -- explicit consideration of  44 degrees of freedom as
           vibrations may cause significant error
 Vibrational temperatures:     16.03    19.81    29.21    34.25    45.68
          (Kelvin)             54.99    64.06    93.47   106.74   110.00
                              132.29   176.88   196.44   214.15   236.27
                              273.14   291.09   331.45   341.64   350.14
                              351.66   379.46   432.80   443.66   486.47
                              525.12   589.54   591.13   596.73   607.63
                              610.32   638.05   642.69   677.37   694.88
                              736.99   745.67   762.56   764.67   800.72
                              834.31   840.03   844.34   855.81   893.27
                              906.31   936.78   958.00   966.07   997.20
                             1027.17  1050.33  1052.56  1090.73  1106.06
                             1131.13  1141.49  1144.66  1184.77  1191.13
                             1209.50  1235.13  1240.57  1267.68  1270.59
                             1273.50  1292.09  1304.17  1323.92  1363.19
                             1373.12  1390.65  1397.70  1405.65  1411.35
                             1411.78  1444.85  1447.48  1457.80  1460.19
                             1468.68  1473.55  1486.73  1505.37  1551.77
                             1562.51  1588.25  1617.29  1626.62  1635.24
                             1641.99  1646.34  1665.86  1692.91  1726.07
                             1755.22  1773.68  1794.13  1813.15  1835.79
                             1858.29  1867.61  1874.88  1887.30  1898.20
                             1901.80  1916.24  1936.27  1945.38  1952.14
                             1968.04  1989.01  2035.26  2044.57  2056.17
                             2058.73  2092.55  2097.74  2119.43  2126.19
                             2137.99  2139.54  2161.81  2197.21  2223.97
                             2307.56  2334.07  2351.76  2353.80  2356.38
                             2377.83  2385.07  2396.15  2519.51  4433.02
                             4438.86  4497.00  4535.54  4536.40  4541.58
                             4574.72  4578.62  4579.59  4591.62  4598.67
                             4601.04  4604.85  4610.45  4621.17  4629.79
                             4634.04  4640.08  4649.29

 Zero-point correction=                           0.402114 (Hartree/Particle)
 Thermal correction to Energy=                    0.429508
 Thermal correction to Enthalpy=                  0.430452
 Thermal correction to Gibbs Free Energy=         0.338811
 Sum of electronic and zero-point Energies=          -1910.912783
 Sum of electronic and thermal Energies=             -1910.885389
 Sum of electronic and thermal Enthalpies=           -1910.884445
 Sum of electronic and thermal Free Energies=        -1910.976085

                     E (Thermal)             CV                S
                      KCal/Mol        Cal/Mol-Kelvin    Cal/Mol-Kelvin
 Total                  269.520            106.780            192.874
 Electronic               0.000              0.000              0.000
 Translational            0.889              2.981             44.338
 Rotational               0.889              2.981             37.970
 Vibrational            267.743            100.819            110.565
 Vibration     1          0.593              1.987              7.796
 Vibration     2          0.593              1.986              7.376
 Vibration     3          0.593              1.986              6.604
 Vibration     4          0.593              1.985              6.288
 Vibration     5          0.594              1.983              5.717
 Vibration     6          0.594              1.982              5.349
 Vibration     7          0.595              1.980              5.047
 Vibration     8          0.597              1.971              4.300
 Vibration     9          0.599              1.966              4.039
 Vibration    10          0.599              1.965              3.980
 Vibration    11          0.602              1.955              3.618
 Vibration    12          0.610              1.930              3.054
 Vibration    13          0.614              1.917              2.852
 Vibration    14          0.618              1.904              2.687
 Vibration    15          0.623              1.886              2.501
 Vibration    16          0.633              1.854              2.229
 Vibration    17          0.639              1.837              2.112
 Vibration    18          0.652              1.795              1.876
 Vibration    19          0.656              1.783              1.822
 Vibration    20          0.659              1.774              1.778
 Vibration    21          0.660              1.772              1.771
 Vibration    22          0.670              1.739              1.637
 Vibration    23          0.693              1.672              1.412
 Vibration    24          0.698              1.658              1.371
 Vibration    25          0.718              1.599              1.221
 Vibration    26          0.738              1.544              1.101
 Vibration    27          0.774              1.449              0.927
 Vibration    28          0.775              1.447              0.924
 Vibration    29          0.778              1.438              0.910
 Vibration    30          0.785              1.422              0.884
 Vibration    31          0.786              1.418              0.878
 Vibration    32          0.803              1.375              0.816
 Vibration    33          0.806              1.368              0.806
 Vibration    34          0.828              1.315              0.735
 Vibration    35          0.839              1.288              0.702
 Vibration    36          0.867              1.223              0.628
 Vibration    37          0.873              1.210              0.614
 Vibration    38          0.885              1.184              0.587
 Vibration    39          0.886              1.180              0.584
 Vibration    40          0.912              1.125              0.531
 Vibration    41          0.937              1.075              0.486
 Vibration    42          0.941              1.066              0.478
 Vibration    43          0.944              1.060              0.473
 Vibration    44          0.953              1.043              0.459

 Optimization completed.
    -- Stationary point found.
 Normal termination of Gaussian 09 at Tue Sep  6 15:53:53 2022.
