 Gaussian 09, Revision C.01,
 Gaussian 09:  EM64L-G09RevC.01 23-Sep-2011

 -------------------------
 #p opt freq b3lyp/cc-pvdz
 -------------------------

 (Enter /opt/gaussian/l101.exe)
 ---------
 Mol39.log
 ---------
 Charge =  0 Multiplicity = 1

 SCF Done:  E(RB3LYP) =  -1806.01745127     A.U. after   15 cycles
 SCF Done:  E(RB3LYP) =  -1806.02811501     A.U. after   13 cycles
 SCF Done:  E(RB3LYP) =  -1806.02862027     A.U. after   12 cycles
 SCF Done:  E(RB3LYP) =  -1806.02881594     A.U. after   13 cycles
 SCF Done:  E(RB3LYP) =  -1806.02883679     A.U. after   13 cycles
 SCF Done:  E(RB3LYP) =  -1806.02896172     A.U. after   11 cycles
 SCF Done:  E(RB3LYP) =  -1806.02896827     A.U. after   12 cycles
 SCF Done:  E(RB3LYP) =  -1806.02901629     A.U. after   11 cycles
 SCF Done:  E(RB3LYP) =  -1806.02901930     A.U. after   10 cycles
 SCF Done:  E(RB3LYP) =  -1806.02902059     A.U. after    9 cycles
 SCF Done:  E(RB3LYP) =  -1806.02902131     A.U. after   10 cycles
 SCF Done:  E(RB3LYP) =  -1806.02902183     A.U. after   10 cycles
 SCF Done:  E(RB3LYP) =  -1806.02902216     A.U. after   10 cycles
 SCF Done:  E(RB3LYP) =  -1806.02902229     A.U. after   10 cycles
 SCF Done:  E(RB3LYP) =  -1806.02902241     A.U. after    7 cycles
 SCF Done:  E(RB3LYP) =  -1806.02902249     A.U. after    7 cycles
 SCF Done:  E(RB3LYP) =  -1806.02902254     A.U. after    7 cycles
 SCF Done:  E(RB3LYP) =  -1806.02902257     A.U. after    6 cycles
 Optimization completed.
    -- Stationary point found.
 Normal termination of Gaussian 09 at Fri Sep  9 11:23:10 2022.

 -------------------------------------------------------------------
 #P Geom=AllCheck Guess=TCheck SCRF=Check GenChk RB3LYP/CC-pVDZ Freq
 -------------------------------------------------------------------

 Structure from the checkpoint file:  /home/scr/lqcapf-6/Gau-416113.chk
 ---------
 Mol39.log
 ---------
 Charge =  0 Multiplicity = 1

                         Standard orientation:
 ---------------------------------------------------------------------
 Center     Atomic      Atomic             Coordinates (Angstroms)
 Number     Number       Type             X           Y           Z
 ---------------------------------------------------------------------
      1         17           0       -2.756457    5.960705   -0.427941
      2          6           0       -2.002430    4.488612    0.166885
      3          6           0       -2.008258    4.219763    1.538572
      4          6           0       -1.407803    3.044095    1.989809
      5          6           0       -0.810572    2.152910    1.091010
      6          6           0       -0.808166    2.430429   -0.281686
      7          6           0       -1.414500    3.609545   -0.741600
      8          6           0       -0.154273    1.510331   -1.308128
      9          7           0        0.263722    0.190396   -0.825662
     10          6           0       -0.649804   -0.842453   -0.637328
     11          8           0       -0.351059   -1.917718   -0.154386
     12          6           0       -2.097248   -0.549303   -1.080348
     13          7           0       -2.946708   -1.704126   -0.947495
     14          7           0       -3.394113   -2.333262   -2.078998
     15          7           0       -4.145892   -3.325399   -1.750131
     16          6           0       -4.216332   -3.382259   -0.371122
     17          6           0       -4.909943   -4.264849    0.475558
     18          6           0       -4.795996   -4.060620    1.843418
     19          6           0       -4.006816   -3.005522    2.368358
     20          6           0       -3.311146   -2.127317    1.547076
     21          6           0       -3.434578   -2.335804    0.163637
     22          6           0        1.650270   -0.008602   -0.520957
     23          6           0        2.409649    1.002087    0.082829
     24          6           0        3.765038    0.790741    0.317060
     25          6           0        4.347997   -0.433651   -0.050721
     26          7           0        3.615461   -1.406923   -0.632534
     27          6           0        2.319663   -1.199919   -0.858192
     28          6           0        5.767289   -0.731416    0.160682
     29          6           0        6.768442    0.065448    0.710779
     30          7           0        7.904249   -0.675647    0.677955
     31          7           0        7.731123   -1.904919    0.147043
     32          6           0        6.440132   -1.943729   -0.167452
     33          1           0       -2.477136    4.918444    2.231588
     34          1           0       -1.405257    2.818722    3.058386
     35          1           0       -0.345934    1.238389    1.463193
     36          1           0       -1.432370    3.846854   -1.807305
     37          1           0       -0.832155    1.391423   -2.167504
     38          1           0        0.743420    2.000049   -1.713074
     39          1           0       -2.510521    0.294925   -0.505501
     40          1           0       -2.128505   -0.279141   -2.145366
     41          1           0       -5.510767   -5.073893    0.057648
     42          1           0       -5.318170   -4.724329    2.535500
     43          1           0       -3.938987   -2.886024    3.451975
     44          1           0       -2.689714   -1.332158    1.959745
     45          1           0        1.951294    1.947567    0.377750
     46          1           0        4.360584    1.574649    0.788079
     47          1           0        1.774418   -2.021078   -1.324839
     48          1           0        6.760748    1.075654    1.111081
     49          1           0        6.004916   -2.829712   -0.621200
     50          1           0        8.823800   -0.402531    0.999835
 ---------------------------------------------------------------------

 SCF Done:  E(RB3LYP) =  -1806.02902257     A.U. after    1 cycles

 The electronic state is 1-A.
 Alpha  occ. eigenvalues -- -101.55975 -19.13336 -14.41302 -14.41181 -14.39540
 Alpha  occ. eigenvalues --  -14.39103 -14.34877 -14.34830 -14.33073 -10.31436
 Alpha  occ. eigenvalues --  -10.27279 -10.26603 -10.26208 -10.24791 -10.23977
 Alpha  occ. eigenvalues --  -10.23621 -10.23424 -10.23285 -10.22965 -10.22563
 Alpha  occ. eigenvalues --  -10.22538 -10.22359 -10.22105 -10.21982 -10.21178
 Alpha  occ. eigenvalues --  -10.20878 -10.20513 -10.20444 -10.20139 -10.19941
 Alpha  occ. eigenvalues --  -10.19529 -10.19321  -9.47792  -7.24053  -7.23080
 Alpha  occ. eigenvalues --   -7.23039  -1.09558  -1.06585  -1.05159  -0.97655
 Alpha  occ. eigenvalues --   -0.94762  -0.92675  -0.91214  -0.86524  -0.86105
 Alpha  occ. eigenvalues --   -0.82527  -0.81868  -0.81043  -0.79998  -0.78126
 Alpha  occ. eigenvalues --   -0.77181  -0.76196  -0.75571  -0.74356  -0.72435
 Alpha  occ. eigenvalues --   -0.67292  -0.64999  -0.64916  -0.63846  -0.62718
 Alpha  occ. eigenvalues --   -0.62286  -0.61035  -0.60203  -0.58878  -0.57376
 Alpha  occ. eigenvalues --   -0.55495  -0.54714  -0.53593  -0.52988  -0.52603
 Alpha  occ. eigenvalues --   -0.52304  -0.50274  -0.49909  -0.48564  -0.48048
 Alpha  occ. eigenvalues --   -0.47446  -0.46791  -0.46587  -0.45658  -0.45130
 Alpha  occ. eigenvalues --   -0.45088  -0.44748  -0.44683  -0.44555  -0.44069
 Alpha  occ. eigenvalues --   -0.43779  -0.42180  -0.41644  -0.41270  -0.40921
 Alpha  occ. eigenvalues --   -0.40229  -0.39633  -0.39195  -0.38548  -0.38194
 Alpha  occ. eigenvalues --   -0.37722  -0.36791  -0.35693  -0.35007  -0.33217
 Alpha  occ. eigenvalues --   -0.33025  -0.32481  -0.31299  -0.29553  -0.29431
 Alpha  occ. eigenvalues --   -0.28438  -0.27956  -0.27693  -0.26884  -0.26661
 Alpha  occ. eigenvalues --   -0.26308  -0.25930  -0.25040  -0.23599  -0.22237
 Alpha virt. eigenvalues --   -0.04729  -0.04535  -0.04287  -0.04018  -0.03319
 Alpha virt. eigenvalues --   -0.00187   0.00673   0.01292   0.01811   0.03388
 Alpha virt. eigenvalues --    0.03829   0.04626   0.05213   0.05506   0.06822

 Mulliken atomic charges:
              1
     1  Cl  -0.076242
     2  C   -0.143688
     3  C    0.119280
     4  C    0.052442
     5  C    0.019108
     6  C   -0.086549
     7  C    0.119302
     8  C    0.151090
     9  N   -0.284309
    10  C    0.125256
    11  O   -0.231700
    12  C    0.123018
    13  N   -0.229180
    14  N   -0.060160
    15  N   -0.180698
    16  C    0.011607
    17  C    0.045459
    18  C    0.038259
    19  C    0.039847
    20  C    0.031697
    21  C    0.213904
    22  C    0.042092
    23  C    0.067727
    24  C    0.018481
    25  C    0.074217
    26  N   -0.207733
    27  C    0.151329
    28  C   -0.054138
    29  C    0.070774
    30  N    0.002776
    31  N   -0.170396
    32  C    0.136018
    33  H   -0.014520
    34  H   -0.011979
    35  H   -0.014437
    36  H   -0.031155
    37  H    0.045257
    38  H    0.052583
    39  H    0.057687
    40  H    0.062641
    41  H   -0.021260
    42  H   -0.026416
    43  H   -0.025553
    44  H   -0.033128
    45  H   -0.021583
    46  H   -0.039203
    47  H    0.002893
    48  H   -0.003038
    49  H   -0.008797
    50  H    0.101121
 Sum of Mulliken atomic charges =   0.00000

 Dipole moment (field-independent basis, Debye):
    X=              2.0897    Y=              7.0485    Z=              3.7184  Tot=              8.2386
 Quadrupole moment (field-independent basis, Debye-Ang):
   XX=           -184.2195   YY=           -205.1654   ZZ=           -184.0220
   XY=             17.8730   XZ=             -2.5899   YZ=             -6.5798

  Exact polarizability: 374.352  -5.093 322.504   9.239   3.081 246.095
 Approx polarizability: 496.961   4.613 514.136  25.321  12.792 463.076

                     1                      2                      3
                     A                      A                      A
 Frequencies --    10.4296                13.6461                18.9416
 Red. masses --     6.6433                10.3771                 7.0365
 Frc consts  --     0.0004                 0.0011                 0.0015
 IR Inten    --     0.8803                 1.2410                 0.1302

                     4                      5                      6
                     A                      A                      A
 Frequencies --    23.9411                25.9359                40.5915
 Red. masses --     5.2162                 5.7968                 4.3902
 Frc consts  --     0.0018                 0.0023                 0.0043
 IR Inten    --     1.6216                 1.3001                 1.5955

                     7                      8                      9
                     A                      A                      A
 Frequencies --    54.6563                63.4262                69.7489
 Red. masses --     6.9223                 5.2862                 5.4653
 Frc consts  --     0.0122                 0.0125                 0.0157
 IR Inten    --     0.5330                 0.7738                 1.7423

                    10                     11                     12
                     A                      A                      A
 Frequencies --    81.7222               105.2267               127.8338
 Red. masses --     6.5862                 6.9655                 7.1347
 Frc consts  --     0.0259                 0.0454                 0.0687
 IR Inten    --     1.5943                 0.6490                 1.3275

                    13                     14                     15
                     A                      A                      A
 Frequencies --   150.7893               158.9501               182.1849
 Red. masses --     5.9495                 7.7217                 6.3738
 Frc consts  --     0.0797                 0.1149                 0.1246
 IR Inten    --     0.7843                 2.0740                 0.5354

                    16                     17                     18
                     A                      A                      A
 Frequencies --   206.1447               219.8910               229.1773
 Red. masses --     5.0394                 5.7865                 4.8639
 Frc consts  --     0.1262                 0.1648                 0.1505
 IR Inten    --     0.0056                 2.3883                 0.5504

                    19                     20                     21
                     A                      A                      A
 Frequencies --   234.3712               252.2605               262.9825
 Red. masses --     5.4573                 4.8056                 3.8693
 Frc consts  --     0.1766                 0.1802                 0.1577
 IR Inten    --     0.4576                 1.2530                 4.6688

                    22                     23                     24
                     A                      A                      A
 Frequencies --   303.6616               345.9914               353.5067
 Red. masses --     3.1402                 7.3762                 5.4820
 Frc consts  --     0.1706                 0.5203                 0.4036
 IR Inten    --     1.8829                 1.3894                 1.4083

                    25                     26                     27
                     A                      A                      A
 Frequencies --   394.2284               400.9079               420.7947
 Red. masses --     6.1592                 5.5896                 4.0370
 Frc consts  --     0.5640                 0.5293                 0.4212
 IR Inten    --    14.2129                 2.3897                 6.5632

                    28                     29                     30
                     A                      A                      A
 Frequencies --   430.1923               434.2703               438.5100
 Red. masses --     5.3571                 5.4235                 2.8821
 Frc consts  --     0.5841                 0.6026                 0.3265
 IR Inten    --     5.2335                 2.5855                 2.3192

                    31                     32                     33
                     A                      A                      A
 Frequencies --   444.4684               472.9469               477.2625
 Red. masses --     2.7885                 4.0455                 4.7973
 Frc consts  --     0.3246                 0.5331                 0.6438
 IR Inten    --     3.3900                 1.2985                 3.1217

                    34                     35                     36
                     A                      A                      A
 Frequencies --   528.8919               532.1752               538.6579
 Red. masses --     2.6116                 2.6342                 4.6402
 Frc consts  --     0.4304                 0.4395                 0.7932
 IR Inten    --    25.6119                20.4243                 1.8573

                    37                     38                     39
                     A                      A                      A
 Frequencies --   547.5959               574.2598               584.5182
 Red. masses --     2.9079                 4.2424                 4.0198
 Frc consts  --     0.5137                 0.8243                 0.8092
 IR Inten    --     2.5454                 1.5612                 1.0811

                    40                     41                     42
                     A                      A                      A
 Frequencies --   597.4539               610.2106               643.4595
 Red. masses --     5.1506                 5.4751                 7.5347
 Frc consts  --     1.0832                 1.2012                 1.8381
 IR Inten    --     1.8439                18.4097                 3.1165

                    43                     44                     45
                     A                      A                      A
 Frequencies --   659.4425               666.8647               674.7880
 Red. masses --     2.0477                 6.9469                 6.7147
 Frc consts  --     0.5246                 1.8202                 1.8014
 IR Inten    --     3.3909                 1.5659                 6.6083

                    46                     47                     48
                     A                      A                      A
 Frequencies --   685.7632               696.9839               704.3123
 Red. masses --     5.5104                 2.8945                 2.8697
 Frc consts  --     1.5268                 0.8285                 0.8387
 IR Inten    --    22.0832                26.9553                11.2976

                    49                     50                     51
                     A                      A                      A
 Frequencies --   716.2187               759.2235               773.0710
 Red. masses --     5.4658                 1.3848                 2.1958
 Frc consts  --     1.6520                 0.4703                 0.7732
 IR Inten    --    14.8266                45.5082                17.2670

                    52                     53                     54
                     A                      A                      A
 Frequencies --   782.0759               785.8527               795.6332
 Red. masses --     5.1615                 3.4151                 5.1939
 Frc consts  --     1.8600                 1.2426                 1.9372
 IR Inten    --     7.1392                 1.9652                10.9036

                    55                     56                     57
                     A                      A                      A
 Frequencies --   798.6482               806.2291               829.6216
 Red. masses --     1.3631                 2.0466                 5.9401
 Frc consts  --     0.5123                 0.7838                 2.4088
 IR Inten    --    16.2583                 3.4234                61.5387

                    58                     59                     60
                     A                      A                      A
 Frequencies --   853.0983               858.3619               863.5603
 Red. masses --     1.6919                 3.6163                 1.5836
 Frc consts  --     0.7255                 1.5698                 0.6958
 IR Inten    --    22.4773                20.6179                 0.9241

                    61                     62                     63
                     A                      A                      A
 Frequencies --   876.0234               900.6183               912.6764
 Red. masses --     2.8621                 1.7225                 1.4349
 Frc consts  --     1.2941                 0.8232                 0.7042
 IR Inten    --     3.5758                 2.5959                10.1827

                    64                     65                     66
                     A                      A                      A
 Frequencies --   922.1372               929.9742               943.0358
 Red. masses --     3.8594                 1.4606                 1.4763
 Frc consts  --     1.9336                 0.7443                 0.7735
 IR Inten    --     2.9964                 1.2257                 2.0836

                    67                     68                     69
                     A                      A                      A
 Frequencies --   945.1637               958.1147               961.0380
 Red. masses --     5.3283                 1.3838                 3.5089
 Frc consts  --     2.8045                 0.7485                 1.9094
 IR Inten    --    20.5995                 3.2930                81.4236

                    70                     71                     72
                     A                      A                      A
 Frequencies --   969.7526               976.7390               997.5737
 Red. masses --     5.4133                 1.3490                 1.2921
 Frc consts  --     2.9994                 0.7583                 0.7576
 IR Inten    --    41.9986                 2.3783                 0.1068

                    73                     74                     75
                     A                      A                      A
 Frequencies --  1000.6705              1009.6731              1012.3591
 Red. masses --     1.5959                 2.8588                 2.6520
 Frc consts  --     0.9415                 1.7171                 1.6014
 IR Inten    --    11.7442                12.7926                15.3841

                    76                     77                     78
                     A                      A                      A
 Frequencies --  1024.7959              1031.7116              1042.9349
 Red. masses --     2.0231                 2.9246                 1.7350
 Frc consts  --     1.2518                 1.8341                 1.1119
 IR Inten    --    10.4840                11.6186                29.0801

                    79                     80                     81
                     A                      A                      A
 Frequencies --  1093.9678              1101.4594              1112.9080
 Red. masses --     3.1948                 1.9009                 1.6028
 Frc consts  --     2.2527                 1.3588                 1.1696
 IR Inten    --    72.4808                14.4865                17.2372

                    82                     83                     84
                     A                      A                      A
 Frequencies --  1121.9319              1127.8544              1139.6073
 Red. masses --     3.0145                 2.1585                 2.3952
 Frc consts  --     2.2356                 1.6177                 1.8328
 IR Inten    --    33.1342                 7.7730                 5.0846

                    85                     86                     87
                     A                      A                      A
 Frequencies --  1145.9622              1161.6925              1169.9283
 Red. masses --     1.4274                 1.8917                 1.4909
 Frc consts  --     1.1044                 1.5041                 1.2023
 IR Inten    --     1.9209                 9.1288                 4.1824

                    88                     89                     90
                     A                      A                      A
 Frequencies --  1177.5668              1181.7930              1205.8403
 Red. masses --     1.5574                 1.1272                 2.6713
 Frc consts  --     1.2724                 0.9275                 2.2885
 IR Inten    --     7.4532                 1.4277                43.7144

                    91                     92                     93
                     A                      A                      A
 Frequencies --  1224.5760              1229.6784              1262.6220
 Red. masses --     1.7322                 1.6783                 3.0332
 Frc consts  --     1.5304                 1.4952                 2.8491
 IR Inten    --   251.0150                31.1985                62.9565

                    94                     95                     96
                     A                      A                      A
 Frequencies --  1269.9083              1285.9152              1295.1919
 Red. masses --     2.7346                 3.0044                 1.7119
 Frc consts  --     2.5983                 2.9271                 1.6920
 IR Inten    --     6.1268                40.9771                 2.3523

                    97                     98                     99
                     A                      A                      A
 Frequencies --  1295.8693              1314.8047              1319.4453
 Red. masses --     1.5973                 2.5075                 1.6671
 Frc consts  --     1.5804                 2.5539                 1.7100
 IR Inten    --     9.4490                18.6892                50.0997

                   100                    101                    102
                     A                      A                      A
 Frequencies --  1339.4013              1347.5275              1351.2597
 Red. masses --     1.9136                 1.9362                 1.9424
 Frc consts  --     2.0226                 2.0714                 2.0897
 IR Inten    --    19.2122                29.6556                12.8358

                   103                    104                    105
                     A                      A                      A
 Frequencies --  1369.4880              1377.4379              1390.9143
 Red. masses --     2.2080                 3.6492                 3.7882
 Frc consts  --     2.4399                 4.0793                 4.3180
 IR Inten    --    29.2579                24.3439                42.2069

                   106                    107                    108
                     A                      A                      A
 Frequencies --  1406.5698              1425.9457              1429.1589
 Red. masses --     1.9866                 3.4254                 3.2814
 Frc consts  --     2.3157                 4.1036                 3.9488
 IR Inten    --   150.0151                71.2113                15.8255

                   109                    110                    111
                     A                      A                      A
 Frequencies --  1434.9918              1440.5404              1445.5311
 Red. masses --     2.2530                 3.3823                 3.1300
 Frc consts  --     2.7335                 4.1353                 3.8535
 IR Inten    --    17.0497                39.6585                28.4485

                   112                    113                    114
                     A                      A                      A
 Frequencies --  1453.3845              1470.1644              1489.8196
 Red. masses --     2.5610                 1.1243                 3.5952
 Frc consts  --     3.1873                 1.4317                 4.7015
 IR Inten    --    31.3617                36.5761                24.7395

                   115                    116                    117
                     A                      A                      A
 Frequencies --  1496.3116              1505.2478              1516.2383
 Red. masses --     2.5775                 2.4353                 2.9882
 Frc consts  --     3.4001                 3.2510                 4.0475
 IR Inten    --     6.6237                38.4599               178.7817

                   118                    119                    120
                     A                      A                      A
 Frequencies --  1530.1277              1601.5463              1621.1203
 Red. masses --     3.7972                 5.8095                 5.5629
 Frc consts  --     5.2381                 8.7795                 8.6135
 IR Inten    --    19.7424                16.8313               129.9651

                   121                    122                    123
                     A                      A                      A
 Frequencies --  1624.4632              1635.7962              1645.7870
 Red. masses --     6.2435                 7.3644                 6.4835
 Frc consts  --     9.7073                11.6103                10.3468
 IR Inten    --    32.1490                 2.6397                19.1152

                   124                    125                    126
                     A                      A                      A
 Frequencies --  1645.9012              1669.3809              1776.3931
 Red. masses --     6.3918                 7.4766                12.1244
 Frc consts  --    10.2019                12.2762                22.5418
 IR Inten    --    49.2307                14.7816               229.5202

                   127                    128                    129
                     A                      A                      A
 Frequencies --  3049.9121              3055.0865              3091.1903
 Red. masses --     1.0638                 1.0629                 1.1015
 Frc consts  --     5.8303                 5.8449                 6.2011
 IR Inten    --    20.9789                21.4779                 7.8648

                   130                    131                    132
                     A                      A                      A
 Frequencies --  3117.4981              3179.5435              3185.3586
 Red. masses --     1.1003                 1.0859                 1.0875
 Frc consts  --     6.3003                 6.4679                 6.5010
 IR Inten    --     3.4161                 1.8716                12.8760

                   133                    134                    135
                     A                      A                      A
 Frequencies --  3186.5418              3190.7488              3193.7454
 Red. masses --     1.0875                 1.0914                 1.0900
 Frc consts  --     6.5058                 6.5465                 6.5505
 IR Inten    --     8.0847                 0.6285                12.1922

                   136                    137                    138
                     A                      A                      A
 Frequencies --  3201.8708              3203.9358              3207.8719
 Red. masses --     1.0947                 1.0942                 1.0922
 Frc consts  --     6.6120                 6.6178                 6.6222
 IR Inten    --     7.3680                 2.3430                 9.0569

                   139                    140                    141
                     A                      A                      A
 Frequencies --  3208.4902              3212.5861              3218.8491
 Red. masses --     1.0947                 1.0971                 1.0954
 Frc consts  --     6.6399                 6.6711                 6.6871
 IR Inten    --    14.6484                 6.5529                 1.5888

                   142                    143                    144
                     A                      A                      A
 Frequencies --  3261.7405              3270.2797              3643.5284
 Red. masses --     1.0980                 1.0973                 1.0825
 Frc consts  --     6.8825                 6.9142                 8.4671
 IR Inten    --     0.1543                 0.4147               144.7603

 - Thermochemistry -
 -------------------
 Temperature   298.150 Kelvin.  Pressure   1.00000 Atm.
 Atom     1 has atomic number 17 and mass  34.96885

 Molecular mass:   443.12614 amu.
 Principal axes and moments of inertia in atomic units:
                           1         2         3
     Eigenvalues --  ******************************
           X            0.99981   0.01912  -0.00348
           Y           -0.01913   0.99981  -0.00228
           Z            0.00344   0.00234   0.99999
 This molecule is an asymmetric top.
 Rotational symmetry number  1.
 Warning -- assumption of classical behavior for rotation
           may cause significant error
 Rotational temperatures (Kelvin)      0.00598     0.00349     0.00242
 Rotational constants (GHZ):           0.12460     0.07265     0.05051
 Zero-point vibrational energy     999416.0 (Joules/Mol)
                                  238.86615 (Kcal/Mol)
 Warning -- explicit consideration of  41 degrees of freedom as
           vibrations may cause significant error
 Vibrational temperatures:     15.01    19.63    27.25    34.45    37.32
          (Kelvin)             58.40    78.64    91.26   100.35   117.58
                              151.40   183.92   216.95   228.69   262.12
                              296.60   316.37   329.73   337.21   362.95
                              378.37   436.90   497.80   508.62   567.21
                              576.82   605.43   618.95   624.82   630.92
                              639.49   680.46   686.67   760.96   765.68
                              775.01   787.87   826.23   840.99   859.60
                              877.96   925.79   948.79   959.47   970.87
                              986.66  1002.80  1013.35  1030.48  1092.35
                             1112.28  1125.23  1130.67  1144.74  1149.08
                             1159.98  1193.64  1227.42  1234.99  1242.47
                             1260.40  1295.79  1313.14  1326.75  1338.02
                             1356.82  1359.88  1378.51  1382.72  1395.26
                             1405.31  1435.28  1439.74  1452.69  1456.56
                             1474.45  1484.40  1500.55  1573.97  1584.75
                             1601.22  1614.21  1622.73  1639.64  1648.78
                             1671.41  1683.26  1694.25  1700.33  1734.93
                             1761.89  1769.23  1816.63  1827.11  1850.14
                             1863.49  1864.46  1891.71  1898.39  1927.10
                             1938.79  1944.16  1970.39  1981.82  2001.21
                             2023.74  2051.62  2056.24  2064.63  2072.61
                             2079.79  2091.09  2115.24  2143.52  2152.86
                             2165.71  2181.53  2201.51  2304.27  2332.43
                             2337.24  2353.54  2367.92  2368.08  2401.86
                             2555.83  4388.14  4395.58  4447.53  4485.38
                             4574.65  4583.01  4584.72  4590.77  4595.08
                             4606.77  4609.74  4615.41  4616.30  4622.19
                             4631.20  4692.91  4705.20  5242.22

 Zero-point correction=                           0.380657 (Hartree/Particle)
 Thermal correction to Energy=                    0.406551
 Thermal correction to Enthalpy=                  0.407496
 Thermal correction to Gibbs Free Energy=         0.318550
 Sum of electronic and zero-point Energies=          -1805.648365
 Sum of electronic and thermal Energies=             -1805.622471
 Sum of electronic and thermal Enthalpies=           -1805.621527
 Sum of electronic and thermal Free Energies=        -1805.710473

                     E (Thermal)             CV                S
                      KCal/Mol        Cal/Mol-Kelvin    Cal/Mol-Kelvin
 Total                  255.115            100.252            187.203
 Electronic               0.000              0.000              0.000
 Translational            0.889              2.981             44.156
 Rotational               0.889              2.981             37.795
 Vibrational            253.337             94.290            105.252
 Vibration     1          0.593              1.987              7.927
 Vibration     2          0.593              1.986              7.393
 Vibration     3          0.593              1.986              6.742
 Vibration     4          0.593              1.985              6.277
 Vibration     5          0.593              1.985              6.118
 Vibration     6          0.594              1.981              5.230
 Vibration     7          0.596              1.976              4.641
 Vibration     8          0.597              1.972              4.348
 Vibration     9          0.598              1.969              4.160
 Vibration    10          0.600              1.962              3.849
 Vibration    11          0.605              1.945              3.355
 Vibration    12          0.611              1.925              2.978
 Vibration    13          0.618              1.902              2.662
 Vibration    14          0.621              1.893              2.562
 Vibration    15          0.630              1.864              2.306
 Vibration    16          0.641              1.831              2.078
 Vibration    17          0.647              1.811              1.960
 Vibration    18          0.652              1.796              1.885
 Vibration    19          0.654              1.788              1.845
 Vibration    20          0.664              1.759              1.715
 Vibration    21          0.670              1.741              1.642
 Vibration    22          0.695              1.667              1.397
 Vibration    23          0.724              1.583              1.184
 Vibration    24          0.730              1.568              1.151
 Vibration    25          0.761              1.483              0.984
 Vibration    26          0.767              1.468              0.959
 Vibration    27          0.783              1.425              0.889
 Vibration    28          0.791              1.404              0.858
 Vibration    29          0.795              1.396              0.845
 Vibration    30          0.799              1.386              0.831
 Vibration    31          0.804              1.373              0.813
 Vibration    32          0.830              1.310              0.729
 Vibration    33          0.834              1.300              0.717
 Vibration    34          0.884              1.186              0.590
 Vibration    35          0.887              1.179              0.582
 Vibration    36          0.894              1.165              0.568
 Vibration    37          0.903              1.145              0.549
 Vibration    38          0.931              1.087              0.496
 Vibration    39          0.941              1.065              0.477
 Vibration    40          0.955              1.037              0.454
 Vibration    41          0.969              1.010              0.432

 Normal termination of Gaussian 09 at Fri Sep  9 14:04:14 2022.
