 Gaussian 09, Revision C.01,
 Gaussian 09:  EM64L-G09RevC.01 23-Sep-2011

 -------------------------
 #p opt freq b3lyp/cc-pvdz
 -------------------------

 (Enter /opt/gaussian/l101.exe)
 ---------
 Mol32.log
 ---------
 Charge =  0 Multiplicity = 1

 SCF Done:  E(RB3LYP) =  -2271.67835146     A.U. after   16 cycles
 SCF Done:  E(RB3LYP) =  -2271.68975400     A.U. after   13 cycles
 SCF Done:  E(RB3LYP) =  -2271.69027312     A.U. after   13 cycles
 SCF Done:  E(RB3LYP) =  -2271.69009147     A.U. after   13 cycles
 SCF Done:  E(RB3LYP) =  -2271.69050644     A.U. after   13 cycles
 SCF Done:  E(RB3LYP) =  -2271.69054901     A.U. after   11 cycles
 SCF Done:  E(RB3LYP) =  -2271.69056008     A.U. after   11 cycles
 SCF Done:  E(RB3LYP) =  -2271.69056375     A.U. after   10 cycles
 SCF Done:  E(RB3LYP) =  -2271.69056503     A.U. after   10 cycles
 SCF Done:  E(RB3LYP) =  -2271.69056569     A.U. after   10 cycles
 SCF Done:  E(RB3LYP) =  -2271.69056570     A.U. after    8 cycles
 SCF Done:  E(RB3LYP) =  -2271.69056574     A.U. after    7 cycles
 SCF Done:  E(RB3LYP) =  -2271.69056576     A.U. after    7 cycles
 Optimization completed.
    -- Stationary point found.
 Normal termination of Gaussian 09 at Tue Sep  6 19:20:39 2022.

 -------------------------------------------------------------------
 #P Geom=AllCheck Guess=TCheck SCRF=Check GenChk RB3LYP/CC-pVDZ Freq
 -------------------------------------------------------------------

 Structure from the checkpoint file:  /home/scr/lqcapf-6/Gau-299541.chk
 ---------
 Mol32.log
 ---------
 Charge =  0 Multiplicity = 1

                         Standard orientation:
 ---------------------------------------------------------------------
 Center     Atomic      Atomic             Coordinates (Angstroms)
 Number     Number       Type             X           Y           Z
 ---------------------------------------------------------------------
      1         17           0       -4.888991    3.989215   -0.958515
      2          6           0       -3.249566    3.528209   -0.531721
      3          6           0       -2.438566    4.450786    0.129007
      4          6           0       -1.140879    4.057296    0.465289
      5          6           0       -0.653712    2.788038    0.155320
      6          6           0       -1.485116    1.875900   -0.510911
      7          6           0       -2.792732    2.247253   -0.852374
      8          6           0       -0.975165    0.499006   -0.914788
      9          7           0       -0.215711   -0.213051    0.131812
     10          6           0       -0.834348   -0.860589    1.185427
     11          8           0       -0.219297   -1.440603    2.068210
     12          6           0       -2.375154   -0.877194    1.213339
     13          7           0       -2.928559   -1.892662    0.334463
     14          7           0       -3.688000   -1.536093   -0.747503
     15          7           0       -4.091181   -2.597267   -1.360619
     16          6           0       -3.605403   -3.700675   -0.687145
     17          6           0       -3.764398   -5.075978   -0.938567
     18          6           0       -3.142735   -5.957917   -0.066338
     19          6           0       -2.372130   -5.495479    1.032530
     20          6           0       -2.200420   -4.142811    1.297837
     21          6           0       -2.842421   -3.257486    0.414308
     22          6           0        1.218937   -0.257606    0.033475
     23          6           0        1.825098   -0.693747   -1.152259
     24          6           0        3.214429   -0.716548   -1.269680
     25          6           0        4.041442   -0.322082   -0.203206
     26          6           0        3.418461    0.097008    0.986995
     27          6           0        2.030457    0.129958    1.108382
     28          6           0        5.519316   -0.352848   -0.327809
     29          6           0        6.175195    0.006787   -1.516750
     30          6           0        7.566844   -0.044333   -1.573400
     31          6           0        8.269023   -0.450027   -0.435336
     32          7           0        7.672051   -0.804386    0.710870
     33          6           0        6.336487   -0.755238    0.747018
     34         17           0       -0.098623    5.200375    1.298305
     35          1           0       -2.806133    5.444653    0.378329
     36          1           0        0.365706    2.518484    0.430016
     37          1           0       -3.456187    1.540448   -1.353039
     38          1           0       -1.815632   -0.115069   -1.262495
     39          1           0       -0.297832    0.613741   -1.771677
     40          1           0       -2.649873   -1.105099    2.252272
     41          1           0       -2.832070    0.076445    0.924689
     42          1           0       -4.355425   -5.419508   -1.788710
     43          1           0       -3.240587   -7.033678   -0.225505
     44          1           0       -1.893656   -6.228446    1.685759
     45          1           0       -1.586822   -3.782006    2.123775
     46          1           0        1.209605   -1.040903   -1.984634
     47          1           0        3.661826   -1.084237   -2.195312
     48          1           0        4.029256    0.430936    1.827811
     49          1           0        1.573684    0.457797    2.041184
     50          1           0        5.599614    0.346023   -2.381060
     51          1           0        8.102641    0.237169   -2.482215
     52          1           0        9.363239   -0.492707   -0.443043
     53          1           0        5.874602   -1.076112    1.686723
 ---------------------------------------------------------------------

 SCF Done:  E(RB3LYP) =  -2271.69056576     A.U. after    1 cycles

 The electronic state is 1-A.
 Alpha  occ. eigenvalues -- -101.55794-101.55677 -19.13253 -14.42648 -14.40521
 Alpha  occ. eigenvalues --  -14.39155 -14.36180 -14.33260 -10.31292 -10.27247
 Alpha  occ. eigenvalues --  -10.27187 -10.26068 -10.25542 -10.24892 -10.24226
 Alpha  occ. eigenvalues --  -10.23323 -10.22934 -10.22879 -10.22491 -10.22286
 Alpha  occ. eigenvalues --  -10.22035 -10.21996 -10.21779 -10.21646 -10.21601
 Alpha  occ. eigenvalues --  -10.21249 -10.21082 -10.21026 -10.20890 -10.20857
 Alpha  occ. eigenvalues --  -10.20850 -10.20841 -10.20725 -10.20403  -9.47611
 Alpha  occ. eigenvalues --   -9.47493  -7.23877  -7.23761  -7.22897  -7.22855
 Alpha  occ. eigenvalues --   -7.22780  -7.22735  -1.10705  -1.06314  -0.96895
 Alpha  occ. eigenvalues --   -0.94842  -0.93639  -0.92023  -0.88372  -0.87750
 Alpha  occ. eigenvalues --   -0.87395  -0.84651  -0.82228  -0.79269  -0.78663
 Alpha  occ. eigenvalues --   -0.78395  -0.77663  -0.76792  -0.75619  -0.75050
 Alpha  occ. eigenvalues --   -0.74150  -0.72068  -0.66414  -0.65835  -0.64740
 Alpha  occ. eigenvalues --   -0.63452  -0.63044  -0.62257  -0.61828  -0.61225
 Alpha  occ. eigenvalues --   -0.60146  -0.57537  -0.54704  -0.54179  -0.53760
 Alpha  occ. eigenvalues --   -0.53564  -0.52305  -0.51615  -0.50680  -0.49956
 Alpha  occ. eigenvalues --   -0.49698  -0.48231  -0.47971  -0.47537  -0.47117
 Alpha  occ. eigenvalues --   -0.46038  -0.45860  -0.45187  -0.45152  -0.45061
 Alpha  occ. eigenvalues --   -0.44762  -0.43915  -0.43649  -0.43180  -0.42896
 Alpha  occ. eigenvalues --   -0.41686  -0.41084  -0.40872  -0.40634  -0.39637
 Alpha  occ. eigenvalues --   -0.39313  -0.38868  -0.38445  -0.38124  -0.37343
 Alpha  occ. eigenvalues --   -0.37280  -0.36990  -0.36508  -0.36295  -0.34461
 Alpha  occ. eigenvalues --   -0.33097  -0.32995  -0.32610  -0.32220  -0.31252
 Alpha  occ. eigenvalues --   -0.29147  -0.28515  -0.27828  -0.27576  -0.27033
 Alpha  occ. eigenvalues --   -0.26915  -0.26237  -0.26147  -0.26071  -0.24426
 Alpha  occ. eigenvalues --   -0.23698
 Alpha virt. eigenvalues --   -0.05627  -0.05465  -0.04450  -0.03912  -0.03341
 Alpha virt. eigenvalues --   -0.02654  -0.01736  -0.00308   0.00066   0.01051
 Alpha virt. eigenvalues --    0.02344   0.04536   0.05304   0.06108   0.06389

 Mulliken atomic charges:
              1
     1  Cl  -0.067301
     2  C   -0.145806
     3  C    0.215221
     4  C   -0.149224
     5  C    0.143024
     6  C   -0.101795
     7  C    0.126308
     8  C    0.154939
     9  N   -0.280210
    10  C    0.134726
    11  O   -0.253962
    12  C    0.166083
    13  N   -0.242646
    14  N   -0.070244
    15  N   -0.175546
    16  C    0.010301
    17  C    0.044037
    18  C    0.039982
    19  C    0.044215
    20  C    0.030170
    21  C    0.184823
    22  C    0.073329
    23  C    0.049079
    24  C    0.023280
    25  C    0.036214
    26  C    0.018758
    27  C    0.088331
    28  C   -0.045426
    29  C    0.074838
    30  C   -0.007784
    31  C    0.106185
    32  N   -0.172499
    33  C    0.099854
    34  Cl  -0.071790
    35  H   -0.008485
    36  H   -0.025686
    37  H   -0.008168
    38  H    0.037612
    39  H    0.052150
    40  H    0.046989
    41  H    0.056342
    42  H   -0.019299
    43  H   -0.022735
    44  H   -0.018370
    45  H   -0.007279
    46  H   -0.022200
    47  H   -0.032496
    48  H   -0.027661
    49  H   -0.021951
    50  H   -0.027519
    51  H   -0.022204
    52  H   -0.002145
    53  H   -0.006356
 Sum of Mulliken atomic charges =   0.00000

 Dipole moment (field-independent basis, Debye):
    X=              0.9606    Y=             -0.2661    Z=             -1.5139  Tot=              1.8126
 Quadrupole moment (field-independent basis, Debye-Ang):
   XX=           -224.8743   YY=           -204.0759   ZZ=           -205.8889
   XY=              7.5203   XZ=            -21.6472   YZ=              0.9030

  Exact polarizability: 444.328  -1.936 338.036  31.324  11.296 254.575
 Approx polarizability: 621.197 -15.351 501.334  88.027  17.433 497.079

                     1                      2                      3
                     A                      A                      A
 Frequencies --     9.2101                12.5927                18.6519
 Red. masses --    14.7902                 8.2192                 8.6448
 Frc consts  --     0.0007                 0.0008                 0.0018
 IR Inten    --     0.0343                 0.0607                 0.0024

                     4                      5                      6
                     A                      A                      A
 Frequencies --    24.6109                30.8201                38.6763
 Red. masses --     7.0292                 4.7454                 6.8026
 Frc consts  --     0.0025                 0.0027                 0.0060
 IR Inten    --     1.4382                 0.6463                 1.6109

                     7                      8                      9
                     A                      A                      A
 Frequencies --    44.4186                66.1677                73.3132
 Red. masses --     7.8504                 6.7289                 3.9527
 Frc consts  --     0.0091                 0.0174                 0.0125
 IR Inten    --     0.3175                 3.5369                 0.7806

                    10                     11                     12
                     A                      A                      A
 Frequencies --    75.6923                91.2635               117.6430
 Red. masses --     6.7420                 7.2696                 8.3808
 Frc consts  --     0.0228                 0.0357                 0.0683
 IR Inten    --     0.3942                 5.2290                 2.3492

                    13                     14                     15
                     A                      A                      A
 Frequencies --   130.5175               143.4585               161.1582
 Red. masses --     8.7597                 7.2532                 6.4668
 Frc consts  --     0.0879                 0.0879                 0.0990
 IR Inten    --     1.1010                 1.3598                 3.6929

                    16                     17                     18
                     A                      A                      A
 Frequencies --   170.0105               195.2608               204.4553
 Red. masses --     8.2018                 5.5095                 6.3856
 Frc consts  --     0.1397                 0.1238                 0.1573
 IR Inten    --     0.2261                 0.0567                 0.6791

                    19                     20                     21
                     A                      A                      A
 Frequencies --   208.2006               231.9436               244.3907
 Red. masses --     5.1433                 5.7874                 5.5837
 Frc consts  --     0.1314                 0.1834                 0.1965
 IR Inten    --     0.2857                 0.4425                 1.4648

                    22                     23                     24
                     A                      A                      A
 Frequencies --   250.0938               296.0120               309.2807
 Red. masses --     4.0071                 5.1200                 5.6013
 Frc consts  --     0.1477                 0.2643                 0.3157
 IR Inten    --     4.9606                 2.1837                 1.0035

                    25                     26                     27
                     A                      A                      A
 Frequencies --   334.1852               364.6958               397.3217
 Red. masses --     5.8474                 2.9642                10.9229
 Frc consts  --     0.3848                 0.2323                 1.0160
 IR Inten    --     6.4728                 2.1369                 3.1365

                    28                     29                     30
                     A                      A                      A
 Frequencies --   410.5366               414.9591               421.3635
 Red. masses --     3.6227                 3.2569                 5.4032
 Frc consts  --     0.3597                 0.3304                 0.5652
 IR Inten    --     8.7975                 1.3701                 1.7675

                    31                     32                     33
                     A                      A                      A
 Frequencies --   423.9331               432.1976               432.8829
 Red. masses --     3.4723                 7.8412                 4.5130
 Frc consts  --     0.3677                 0.8630                 0.4983
 IR Inten    --     2.6648                 3.5020                 1.2021

                    34                     35                     36
                     A                      A                      A
 Frequencies --   446.5318               451.2115               474.9266
 Red. masses --     3.0518                 3.5979                 4.6033
 Frc consts  --     0.3585                 0.4316                 0.6118
 IR Inten    --     4.6180                 5.0085                 1.4235

                    37                     38                     39
                     A                      A                      A
 Frequencies --   511.6318               518.6375               530.4662
 Red. masses --     4.6856                 4.3853                 5.2977
 Frc consts  --     0.7226                 0.6950                 0.8783
 IR Inten    --     4.1604                 1.1792                 2.0899

                    40                     41                     42
                     A                      A                      A
 Frequencies --   547.0631               556.6405               578.7354
 Red. masses --     5.3755                 4.2233                 3.2014
 Frc consts  --     0.9479                 0.7710                 0.6318
 IR Inten    --     0.0221                 4.4420                 1.5962

                    43                     44                     45
                     A                      A                      A
 Frequencies --   583.8285               591.6932               613.9820
 Red. masses --     4.0156                 5.4479                 4.6337
 Frc consts  --     0.8064                 1.1238                 1.0292
 IR Inten    --     0.3025                 4.0142                34.7654

                    46                     47                     48
                     A                      A                      A
 Frequencies --   628.5368               650.8608               661.7541
 Red. masses --     7.3427                 7.0152                 5.3805
 Frc consts  --     1.7091                 1.7509                 1.3882
 IR Inten    --     2.7584                 0.5681                 1.9351

                    49                     50                     51
                     A                      A                      A
 Frequencies --   671.0012               692.1439               714.1971
 Red. masses --     8.2375                 3.3483                 5.3440
 Frc consts  --     2.1852                 0.9451                 1.6060
 IR Inten    --     2.4637                 9.8389                28.8224

                    52                     53                     54
                     A                      A                      A
 Frequencies --   729.4252               731.3088               757.4867
 Red. masses --     3.1833                 2.2776                 3.7778
 Frc consts  --     0.9979                 0.7177                 1.2772
 IR Inten    --    16.0409                13.0161                12.9503

                    55                     56                     57
                     A                      A                      A
 Frequencies --   768.9482               785.2655               792.9568
 Red. masses --     1.4605                 5.1674                 3.6709
 Frc consts  --     0.5088                 1.8774                 1.3600
 IR Inten    --    45.3614                14.4422                22.7160

                    58                     59                     60
                     A                      A                      A
 Frequencies --   795.1698               806.6716               823.7616
 Red. masses --     4.6303                 7.5283                 1.6891
 Frc consts  --     1.7249                 2.8863                 0.6753
 IR Inten    --    14.6925                52.1351                18.9637

                    61                     62                     63
                     A                      A                      A
 Frequencies --   827.7552               840.6678               861.4298
 Red. masses --     5.6546                 1.2669                 1.8412
 Frc consts  --     2.2827                 0.5275                 0.8050
 IR Inten    --     4.5434                 4.0251                 8.7032

                    64                     65                     66
                     A                      A                      A
 Frequencies --   871.3504               883.1194               894.5077
 Red. masses --     2.0881                 1.4815                 1.6598
 Frc consts  --     0.9341                 0.6807                 0.7825
 IR Inten    --    15.5768                 1.6032                22.0502

                    67                     68                     69
                     A                      A                      A
 Frequencies --   907.3874               915.4745               918.5729
 Red. masses --     1.7374                 2.7212                 1.8303
 Frc consts  --     0.8428                 1.3437                 0.9099
 IR Inten    --     4.2909                14.3323                 2.9259

                    70                     71                     72
                     A                      A                      A
 Frequencies --   922.1786               947.9288               958.1895
 Red. masses --     4.5322                 1.3448                 2.9002
 Frc consts  --     2.2708                 0.7120                 1.5688
 IR Inten    --     5.4177                 0.5169                63.8255

                    73                     74                     75
                     A                      A                      A
 Frequencies --   966.8971               971.8919               977.4696
 Red. masses --     1.3481                 1.3582                 1.4542
 Frc consts  --     0.7425                 0.7559                 0.8186
 IR Inten    --     0.9063                 1.6711                 0.6466

                    76                     77                     78
                     A                      A                      A
 Frequencies --   981.2806              1004.4696              1006.4016
 Red. masses --     1.3608                 1.3943                 1.2930
 Frc consts  --     0.7720                 0.8289                 0.7716
 IR Inten    --     0.7421                 0.5620                 0.6069

                    79                     80                     81
                     A                      A                      A
 Frequencies --  1007.9972              1012.4373              1018.5595
 Red. masses --     3.8905                 4.0709                 4.3046
 Frc consts  --     2.3291                 2.4585                 2.6312
 IR Inten    --    14.4132                15.6367                11.5814

                    82                     83                     84
                     A                      A                      A
 Frequencies --  1024.2817              1033.1670              1046.1318
 Red. masses --     2.0076                 3.0148                 3.8344
 Frc consts  --     1.2410                 1.8960                 2.4724
 IR Inten    --    14.2563                 3.7476                 1.9173

                    85                     86                     87
                     A                      A                      A
 Frequencies --  1078.7057              1086.5115              1114.5343
 Red. masses --     1.9846                 2.3568                 1.4417
 Frc consts  --     1.3606                 1.6393                 1.0551
 IR Inten    --     1.6006                43.1699                 4.2934

                    88                     89                     90
                     A                      A                      A
 Frequencies --  1124.0253              1130.8742              1132.8683
 Red. masses --     2.7495                 1.6589                 1.6753
 Frc consts  --     2.0467                 1.2499                 1.2668
 IR Inten    --     1.4757                 4.5487                 4.8212

                    91                     92                     93
                     A                      A                      A
 Frequencies --  1137.2033              1141.9875              1147.2315
 Red. masses --     1.3520                 1.4721                 2.3867
 Frc consts  --     1.0302                 1.1312                 1.8507
 IR Inten    --     4.5654                 3.1862                27.6373

                    94                     95                     96
                     A                      A                      A
 Frequencies --  1176.5092              1198.6212              1219.8427
 Red. masses --     1.4136                 1.1528                 1.4648
 Frc consts  --     1.1529                 0.9758                 1.2842
 IR Inten    --     9.2046                 3.6444                 5.8635

                    97                     98                     99
                     A                      A                      A
 Frequencies --  1228.3615              1237.2202              1254.4252
 Red. masses --     3.5588                 1.5811                 1.9914
 Frc consts  --     3.1638                 1.4259                 1.8463
 IR Inten    --    53.1907               148.7639                35.3028

                   100                    101                    102
                     A                      A                      A
 Frequencies --  1265.3275              1275.6902              1291.7123
 Red. masses --     1.6901                 3.8986                 3.4821
 Frc consts  --     1.5943                 3.7381                 3.4231
 IR Inten    --    28.8192                24.6819                 3.1193

                   103                    104                    105
                     A                      A                      A
 Frequencies --  1298.7510              1311.6231              1319.3065
 Red. masses --     1.7127                 2.5627                 1.7631
 Frc consts  --     1.7021                 2.5975                 1.8081
 IR Inten    --    21.4437                 3.7425                31.9655

                   106                    107                    108
                     A                      A                      A
 Frequencies --  1321.9036              1331.4490              1342.0065
 Red. masses --     1.6933                 3.8369                 3.8761
 Frc consts  --     1.7433                 4.0076                 4.1130
 IR Inten    --     1.6528                16.5874                10.5504

                   109                    110                    111
                     A                      A                      A
 Frequencies --  1346.7061              1356.7999              1368.0114
 Red. masses --     1.5948                 1.6122                 3.9286
 Frc consts  --     1.7041                 1.7486                 4.3318
 IR Inten    --    16.8578                 0.5964                19.7548

                   112                    113                    114
                     A                      A                      A
 Frequencies --  1379.6430              1414.8998              1421.4269
 Red. masses --     1.5779                 2.9401                 2.8494
 Frc consts  --     1.7695                 3.4679                 3.3920
 IR Inten    --    35.4609               115.9008                68.4468

                   115                    116                    117
                     A                      A                      A
 Frequencies --  1429.4896              1431.1029              1455.0355
 Red. masses --     2.6726                 7.2611                 2.2518
 Frc consts  --     3.2177                 8.7618                 2.8088
 IR Inten    --    22.5518                 9.4349                51.6130

                   118                    119                    120
                     A                      A                      A
 Frequencies --  1458.3662              1459.4540              1462.7075
 Red. masses --     2.9799                 1.2423                 2.7586
 Frc consts  --     3.7341                 1.5590                 3.4774
 IR Inten    --    48.5188                37.3957                34.0966

                   121                    122                    123
                     A                      A                      A
 Frequencies --  1484.5592              1487.3365              1502.5328
 Red. masses --     1.3955                 2.1465                 2.2897
 Frc consts  --     1.8121                 2.7977                 3.0456
 IR Inten    --    10.4743                30.6598                51.7600

                   124                    125                    126
                     A                      A                      A
 Frequencies --  1527.4156              1545.7651              1603.7601
 Red. masses --     3.5748                 2.9089                 5.5960
 Frc consts  --     4.9137                 4.0952                 8.4803
 IR Inten    --    11.2903                53.8199                 5.4986

                   127                    128                    129
                     A                      A                      A
 Frequencies --  1612.9980              1622.2084              1634.5277
 Red. masses --     6.8393                 6.7459                 7.2519
 Frc consts  --    10.4841                10.4593                11.4153
 IR Inten    --    79.6518                 7.0175                14.5236

                   130                    131                    132
                     A                      A                      A
 Frequencies --  1634.8828              1637.9137              1657.7231
 Red. masses --     7.0489                 6.2334                 6.2740
 Frc consts  --    11.1006                 9.8527                10.1582
 IR Inten    --    57.9979                 3.1887                13.4318

                   133                    134                    135
                     A                      A                      A
 Frequencies --  1665.4922              1751.1074              3083.7025
 Red. masses --     7.2796                11.1866                 1.0608
 Frc consts  --    11.8972                20.2103                 5.9430
 IR Inten    --    13.0596               246.3595                10.4863

                   136                    137                    138
                     A                      A                      A
 Frequencies --  3085.6998              3129.2894              3152.7260
 Red. masses --     1.0620                 1.1055                 1.0885
 Frc consts  --     5.9577                 6.3784                 6.3745
 IR Inten    --     6.6158                 1.5641                26.0240

                   139                    140                    141
                     A                      A                      A
 Frequencies --  3153.8901              3156.4959              3179.3377
 Red. masses --     1.1051                 1.0912                 1.0882
 Frc consts  --     6.4766                 6.4057                 6.4806
 IR Inten    --     0.1598                 7.2767                25.8879

                   142                    143                    144
                     A                      A                      A
 Frequencies --  3182.2814              3182.7253              3191.9807
 Red. masses --     1.0864                 1.0882                 1.0895
 Frc consts  --     6.4819                 6.4945                 6.5401
 IR Inten    --     3.5915                 0.0660                 7.4838

                   145                    146                    147
                     A                      A                      A
 Frequencies --  3196.2716              3197.4158              3200.5473
 Red. masses --     1.0908                 1.0954                 1.0973
 Frc consts  --     6.5657                 6.5981                 6.6226
 IR Inten    --    10.1019                 3.6999                17.5249

                   148                    149                    150
                     A                      A                      A
 Frequencies --  3204.5301              3212.0443              3216.9741
 Red. masses --     1.0927                 1.0958                 1.0921
 Frc consts  --     6.6113                 6.6610                 6.6587
 IR Inten    --     1.1241                 8.5092                 0.9838

                   151                    152                    153
                     A                      A                      A
 Frequencies --  3218.0452              3224.8550              3233.5424
 Red. masses --     1.0961                 1.0942                 1.0934
 Frc consts  --     6.6879                 6.7044                 6.7356
 IR Inten    --     3.8977                 3.4023                 1.0470

 - Thermochemistry -
 -------------------
 Temperature   298.150 Kelvin.  Pressure   1.00000 Atm.
 Atom     1 has atomic number 17 and mass  34.96885

 Molecular mass:   487.09667 amu.
 Principal axes and moments of inertia in atomic units:
                           1         2         3
     Eigenvalues --  ******************************
           X            0.99978   0.02060  -0.00493
           Y           -0.02061   0.99978  -0.00244
           Z            0.00488   0.00255   0.99998
 This molecule is an asymmetric top.
 Rotational symmetry number  1.
 Warning -- assumption of classical behavior for rotation
           may cause significant error
 Rotational temperatures (Kelvin)      0.00503     0.00323     0.00214
 Rotational constants (GHZ):           0.10483     0.06728     0.04460
 Zero-point vibrational energy    1052206.6 (Joules/Mol)
                                  251.48342 (Kcal/Mol)
 Warning -- explicit consideration of  45 degrees of freedom as
           vibrations may cause significant error
 Vibrational temperatures:     13.25    18.12    26.84    35.41    44.34
          (Kelvin)             55.65    63.91    95.20   105.48   108.90
                              131.31   169.26   187.79   206.40   231.87
                              244.61   280.94   294.17   299.55   333.71
                              351.62   359.83   425.89   444.99   480.82
                              524.72   571.66   590.67   597.03   606.25
                              609.94   621.84   622.82   642.46   649.19
                              683.31   736.12   746.20   763.22   787.10
                              800.88   832.67   840.00   851.31   883.38
                              904.32   936.44   952.12   965.42   995.84
                             1027.57  1049.48  1052.19  1089.85  1106.34
                             1129.82  1140.89  1144.07  1160.62  1185.21
                             1190.95  1209.53  1239.40  1253.68  1270.61
                             1287.00  1305.53  1317.16  1321.62  1326.81
                             1363.86  1378.62  1391.15  1398.33  1406.36
                             1411.84  1445.21  1447.99  1450.28  1456.67
                             1465.48  1473.71  1486.49  1505.15  1552.02
                             1563.25  1603.56  1617.22  1627.07  1629.94
                             1636.18  1643.06  1650.61  1692.73  1724.55
                             1755.08  1767.34  1780.08  1804.84  1820.52
                             1835.43  1858.48  1868.61  1887.13  1898.19
                             1901.92  1915.66  1930.85  1937.61  1952.13
                             1968.26  1985.00  2035.72  2045.11  2056.71
                             2059.04  2093.47  2098.26  2099.83  2104.51
                             2135.95  2139.94  2161.81  2197.61  2224.01
                             2307.45  2320.74  2333.99  2351.72  2352.23
                             2356.59  2385.09  2396.27  2519.45  4436.75
                             4439.63  4502.34  4536.06  4537.74  4541.49
                             4574.35  4578.59  4579.23  4592.54  4598.72
                             4600.36  4604.87  4610.60  4621.41  4628.50
                             4630.04  4639.84  4652.34

 Zero-point correction=                           0.400764 (Hartree/Particle)
 Thermal correction to Energy=                    0.428559
 Thermal correction to Enthalpy=                  0.429504
 Thermal correction to Gibbs Free Energy=         0.336511
 Sum of electronic and zero-point Energies=          -2271.289801
 Sum of electronic and thermal Energies=             -2271.262006
 Sum of electronic and thermal Enthalpies=           -2271.261062
 Sum of electronic and thermal Free Energies=        -2271.354055

                     E (Thermal)             CV                S
                      KCal/Mol        Cal/Mol-Kelvin    Cal/Mol-Kelvin
 Total                  268.925            107.632            195.720
 Electronic               0.000              0.000              0.000
 Translational            0.889              2.981             44.438
 Rotational               0.889              2.981             38.166
 Vibrational            267.148            101.671            113.116
 Vibration     1          0.593              1.987              8.175
 Vibration     2          0.593              1.987              7.553
 Vibration     3          0.593              1.986              6.773
 Vibration     4          0.593              1.985              6.222
 Vibration     5          0.594              1.984              5.776
 Vibration     6          0.594              1.981              5.326
 Vibration     7          0.595              1.980              5.052
 Vibration     8          0.598              1.970              4.264
 Vibration     9          0.599              1.967              4.062
 Vibration    10          0.599              1.965              4.000
 Vibration    11          0.602              1.955              3.633
 Vibration    12          0.608              1.935              3.139
 Vibration    13          0.612              1.923              2.938
 Vibration    14          0.616              1.910              2.757
 Vibration    15          0.622              1.890              2.536
 Vibration    16          0.625              1.879              2.435
 Vibration    17          0.636              1.846              2.177
 Vibration    18          0.640              1.834              2.093
 Vibration    19          0.642              1.828              2.059
 Vibration    20          0.653              1.792              1.864
 Vibration    21          0.660              1.772              1.771
 Vibration    22          0.663              1.763              1.730
 Vibration    23          0.690              1.681              1.439
 Vibration    24          0.699              1.656              1.366
 Vibration    25          0.716              1.607              1.240
 Vibration    26          0.738              1.545              1.102
 Vibration    27          0.764              1.476              0.973
 Vibration    28          0.775              1.447              0.925
 Vibration    29          0.778              1.438              0.909
 Vibration    30          0.784              1.424              0.887
 Vibration    31          0.786              1.418              0.879
 Vibration    32          0.793              1.400              0.852
 Vibration    33          0.794              1.399              0.849
 Vibration    34          0.806              1.369              0.806
 Vibration    35          0.810              1.358              0.792
 Vibration    36          0.832              1.306              0.724
 Vibration    37          0.867              1.224              0.630
 Vibration    38          0.874              1.209              0.613
 Vibration    39          0.885              1.183              0.586
 Vibration    40          0.902              1.146              0.550
 Vibration    41          0.912              1.125              0.531
 Vibration    42          0.935              1.077              0.488
 Vibration    43          0.941              1.066              0.478
 Vibration    44          0.949              1.049              0.464
 Vibration    45          0.973              1.002              0.426

 Optimization completed.
    -- Stationary point found.
 Normal termination of Gaussian 09 at Tue Sep  6 22:18:58 2022.
