 Gaussian 09, Revision C.01,
 Gaussian 09:  EM64L-G09RevC.01 23-Sep-2011

 -------------------------
 #p opt freq b3lyp/cc-pvdz
 -------------------------

 (Enter /opt/gaussian/l101.exe)
 ---------
 Mol34.log
 ---------
 Charge =  0 Multiplicity = 1

 SCF Done:  E(RB3LYP) =  -1828.09330720     A.U. after   15 cycles
 SCF Done:  E(RB3LYP) =  -1828.10411506     A.U. after   13 cycles
 SCF Done:  E(RB3LYP) =  -1828.10469428     A.U. after   12 cycles
 SCF Done:  E(RB3LYP) =  -1828.10486152     A.U. after   12 cycles
 SCF Done:  E(RB3LYP) =  -1828.10489838     A.U. after   12 cycles
 SCF Done:  E(RB3LYP) =  -1828.10498483     A.U. after   11 cycles
 SCF Done:  E(RB3LYP) =  -1828.10500407     A.U. after   11 cycles
 SCF Done:  E(RB3LYP) =  -1828.10500664     A.U. after   11 cycles
 SCF Done:  E(RB3LYP) =  -1828.10501197     A.U. after   10 cycles
 SCF Done:  E(RB3LYP) =  -1828.10501478     A.U. after   10 cycles
 SCF Done:  E(RB3LYP) =  -1828.10501612     A.U. after   10 cycles
 SCF Done:  E(RB3LYP) =  -1828.10501723     A.U. after   10 cycles
 SCF Done:  E(RB3LYP) =  -1828.10501779     A.U. after    8 cycles
 SCF Done:  E(RB3LYP) =  -1828.10501803     A.U. after    7 cycles
 SCF Done:  E(RB3LYP) =  -1828.10501813     A.U. after    7 cycles
 SCF Done:  E(RB3LYP) =  -1828.10501820     A.U. after    7 cycles
 SCF Done:  E(RB3LYP) =  -1828.10501828     A.U. after    7 cycles
 SCF Done:  E(RB3LYP) =  -1828.10501831     A.U. after    6 cycles
 Optimization completed.
    -- Stationary point found.
 Normal termination of Gaussian 09 at Wed Sep  7 11:15:02 2022.

 -------------------------------------------------------------------
 #P Geom=AllCheck Guess=TCheck SCRF=Check GenChk RB3LYP/CC-pVDZ Freq
 -------------------------------------------------------------------

 Structure from the checkpoint file:  /home/scr/lqcapf-6/Gau-309212.chk
 ---------
 Mol34.log
 ---------
 Charge =  0 Multiplicity = 1

                         Standard orientation:
 ---------------------------------------------------------------------
 Center     Atomic      Atomic             Coordinates (Angstroms)
 Number     Number       Type             X           Y           Z
 ---------------------------------------------------------------------
      1         17           0       -2.893945    5.960631   -0.371317
      2          6           0       -2.138033    4.463020    0.133984
      3          6           0       -2.083366    4.131765    1.494098
      4          7           0       -1.522385    3.002250    1.928600
      5          6           0       -0.994466    2.167263    1.021264
      6          6           0       -0.998612    2.407354   -0.358995
      7          6           0       -1.594115    3.594573   -0.807071
      8          6           0       -0.379353    1.456179   -1.374803
      9          7           0        0.019990    0.137979   -0.872927
     10          6           0       -0.913674   -0.875145   -0.671469
     11          8           0       -0.635371   -1.956851   -0.191851
     12          6           0       -2.362066   -0.553713   -1.096769
     13          7           0       -3.235417   -1.684047   -0.923921
     14          7           0       -3.685039   -2.352864   -2.031742
     15          7           0       -4.447570   -3.323702   -1.666594
     16          6           0       -4.521749   -3.326669   -0.286424
     17          6           0       -5.225754   -4.169160    0.591886
     18          6           0       -5.112032   -3.913565    1.951165
     19          6           0       -4.314026   -2.846512    2.437041
     20          6           0       -3.608451   -2.006816    1.584353
     21          6           0       -3.730965   -2.268204    0.209839
     22          6           0        1.411884   -0.083440   -0.591693
     23          6           0        2.187683    0.946433   -0.037740
     24          6           0        3.551525    0.764260    0.192827
     25          6           0        4.186798   -0.450821   -0.110380
     26          6           0        3.395545   -1.476307   -0.660547
     27          6           0        2.034834   -1.303179   -0.902164
     28          6           0        5.636588   -0.643969    0.137791
     29          6           0        6.275992   -0.119811    1.273410
     30          6           0        7.642143   -0.332863    1.449295
     31          6           0        8.334968   -1.069659    0.484917
     32          7           0        7.754521   -1.577782   -0.610858
     33          6           0        6.444529   -1.360869   -0.766631
     34          1           0       -2.509957    4.804337    2.243437
     35          1           0       -0.544037    1.253687    1.419514
     36          1           0       -1.637038    3.841056   -1.870437
     37          1           0       -1.074235    1.334728   -2.220290
     38          1           0        0.520208    1.921470   -1.803199
     39          1           0       -2.747627    0.311567   -0.534397
     40          1           0       -2.403408   -0.306727   -2.167285
     41          1           0       -5.834121   -4.987518    0.204124
     42          1           0       -5.642188   -4.544833    2.667103
     43          1           0       -4.247931   -2.684954    3.515229
     44          1           0       -2.983196   -1.200434    1.968958
     45          1           0        1.734144    1.903833    0.222506
     46          1           0        4.131632    1.593670    0.602262
     47          1           0        3.847957   -2.442925   -0.890003
     48          1           0        1.452765   -2.123160   -1.315445
     49          1           0        5.701775    0.429365    2.023151
     50          1           0        8.162666    0.055948    2.326891
     51          1           0        9.407190   -1.262195    0.596624
     52          1           0        6.001764   -1.766536   -1.682551
 ---------------------------------------------------------------------

 SCF Done:  E(RB3LYP) =  -1828.10501831     A.U. after    1 cycles

 The electronic state is 1-A.
 Alpha  occ. eigenvalues -- -101.56905 -19.13644 -14.41488 -14.39853 -14.39287
 Alpha  occ. eigenvalues --  -14.35962 -14.35064 -14.33211 -10.31748 -10.28024
 Alpha  occ. eigenvalues --  -10.27228 -10.26549 -10.25511 -10.25268 -10.25162
 Alpha  occ. eigenvalues --  -10.24392 -10.24317 -10.23441 -10.22882 -10.22817
 Alpha  occ. eigenvalues --  -10.21598 -10.21573 -10.21530 -10.21330 -10.21251
 Alpha  occ. eigenvalues --  -10.21037 -10.20715 -10.20665 -10.20610 -10.20597
 Alpha  occ. eigenvalues --  -10.20229 -10.20067 -10.19640  -9.48714  -7.24984
 Alpha  occ. eigenvalues --   -7.23997  -7.23957  -1.09752  -1.06881  -0.98171
 Alpha  occ. eigenvalues --   -0.97310  -0.94788  -0.92905  -0.89775  -0.87768
 Alpha  occ. eigenvalues --   -0.86654  -0.84440  -0.82164  -0.79159  -0.78226
 Alpha  occ. eigenvalues --   -0.77935  -0.77219  -0.76698  -0.75340  -0.74525
 Alpha  occ. eigenvalues --   -0.72976  -0.66694  -0.66527  -0.65119  -0.64849
 Alpha  occ. eigenvalues --   -0.64083  -0.62711  -0.62146  -0.61786  -0.59571
 Alpha  occ. eigenvalues --   -0.57440  -0.55488  -0.54725  -0.53901  -0.53355
 Alpha  occ. eigenvalues --   -0.52833  -0.52487  -0.51303  -0.50186  -0.49801
 Alpha  occ. eigenvalues --   -0.48854  -0.48035  -0.47244  -0.46886  -0.46452
 Alpha  occ. eigenvalues --   -0.46293  -0.45283  -0.45119  -0.44894  -0.44580
 Alpha  occ. eigenvalues --   -0.44116  -0.43906  -0.43715  -0.42868  -0.42501
 Alpha  occ. eigenvalues --   -0.41237  -0.40925  -0.40656  -0.40163  -0.39464
 Alpha  occ. eigenvalues --   -0.38408  -0.37809  -0.37281  -0.36948  -0.36903
 Alpha  occ. eigenvalues --   -0.36067  -0.35802  -0.34112  -0.33354  -0.32035
 Alpha  occ. eigenvalues --   -0.31523  -0.31075  -0.29433  -0.28631  -0.28368
 Alpha  occ. eigenvalues --   -0.27912  -0.27442  -0.26925  -0.26857  -0.26105
 Alpha  occ. eigenvalues --   -0.25177  -0.23779  -0.23420
 Alpha virt. eigenvalues --   -0.06526  -0.05372  -0.04860  -0.04442  -0.03325
 Alpha virt. eigenvalues --   -0.02606  -0.01309   0.00474   0.00815   0.01572
 Alpha virt. eigenvalues --    0.03086   0.03530   0.05490   0.05740   0.06207

 Mulliken atomic charges:
              1
     1  Cl  -0.063335
     2  C   -0.186267
     3  C    0.178291
     4  N   -0.162417
     5  C    0.099736
     6  C   -0.149175
     7  C    0.187646
     8  C    0.148697
     9  N   -0.284471
    10  C    0.131024
    11  O   -0.230606
    12  C    0.121307
    13  N   -0.228733
    14  N   -0.061063
    15  N   -0.180498
    16  C    0.011570
    17  C    0.045273
    18  C    0.038454
    19  C    0.039777
    20  C    0.028619
    21  C    0.213381
    22  C    0.099029
    23  C    0.024650
    24  C    0.018490
    25  C    0.034557
    26  C    0.017612
    27  C    0.079557
    28  C   -0.043482
    29  C    0.074891
    30  C   -0.008021
    31  C    0.105816
    32  N   -0.172661
    33  C    0.099516
    34  H    0.014231
    35  H    0.015025
    36  H   -0.018051
    37  H    0.044077
    38  H    0.055633
    39  H    0.055551
    40  H    0.062736
    41  H   -0.021137
    42  H   -0.025817
    43  H   -0.023155
    44  H   -0.027476
    45  H   -0.024833
    46  H   -0.035593
    47  H   -0.027221
    48  H   -0.010554
    49  H   -0.026422
    50  H   -0.022347
    51  H   -0.002476
    52  H   -0.009333
 Sum of Mulliken atomic charges =   0.00000

 Dipole moment (field-independent basis, Debye):
    X=              1.0695    Y=              5.0396    Z=              1.5409  Tot=              5.3774
 Quadrupole moment (field-independent basis, Debye-Ang):
   XX=           -208.7012   YY=           -204.4821   ZZ=           -194.8537
   XY=              1.6875   XZ=              0.9562   YZ=            -12.6517

  Exact polarizability: 407.613  -9.829 318.675  10.453  12.068 266.363
 Approx polarizability: 529.379  -5.361 508.430  19.585  33.355 509.284

                     1                      2                      3
                     A                      A                      A
 Frequencies --    11.5065                13.0010                17.9484
 Red. masses --     8.7723                 7.8229                 6.6409
 Frc consts  --     0.0007                 0.0008                 0.0013
 IR Inten    --     0.2552                 1.1688                 0.4094

                     4                      5                      6
                     A                      A                      A
 Frequencies --    21.9211                25.9862                41.5939
 Red. masses --     5.0643                 6.5441                 5.6873
 Frc consts  --     0.0014                 0.0026                 0.0058
 IR Inten    --     0.1013                 1.3057                 1.5040

                     7                      8                      9
                     A                      A                      A
 Frequencies --    52.6504                67.5673                68.6299
 Red. masses --     6.7645                 5.6871                 5.5636
 Frc consts  --     0.0110                 0.0153                 0.0154
 IR Inten    --     0.2435                 0.9515                 0.5225

                    10                     11                     12
                     A                      A                      A
 Frequencies --    81.8843                98.5855               116.2123
 Red. masses --     5.4928                 6.0307                 6.0889
 Frc consts  --     0.0217                 0.0345                 0.0485
 IR Inten    --     2.2737                 0.2616                 1.5715

                    13                     14                     15
                     A                      A                      A
 Frequencies --   150.1919               154.4115               175.4763
 Red. masses --     6.1395                 8.1058                 5.9447
 Frc consts  --     0.0816                 0.1139                 0.1078
 IR Inten    --     0.1171                 1.0621                 0.6314

                    16                     17                     18
                     A                      A                      A
 Frequencies --   204.7338               212.6672               227.9504
 Red. masses --     4.5210                 5.4249                 5.8514
 Frc consts  --     0.1117                 0.1446                 0.1791
 IR Inten    --     0.0780                 1.9326                 0.3395

                    19                     20                     21
                     A                      A                      A
 Frequencies --   230.2693               239.2605               262.0980
 Red. masses --     5.2572                 4.2787                 3.4514
 Frc consts  --     0.1642                 0.1443                 0.1397
 IR Inten    --     1.0594                 1.4537                 4.1096

                    22                     23                     24
                     A                      A                      A
 Frequencies --   299.8919               333.6677               347.1462
 Red. masses --     3.2900                 4.6662                 6.7857
 Frc consts  --     0.1743                 0.3061                 0.4818
 IR Inten    --     3.5365                 1.6992                 1.2689

                    25                     26                     27
                     A                      A                      A
 Frequencies --   351.7037               384.3767               413.4153
 Red. masses --     6.0278                 6.5884                 3.2682
 Frc consts  --     0.4393                 0.5735                 0.3291
 IR Inten    --     1.5348                12.9458                 3.7004

                    28                     29                     30
                     A                      A                      A
 Frequencies --   417.4364               422.1508               436.7429
 Red. masses --     3.4020                 3.5732                 5.5095
 Frc consts  --     0.3493                 0.3752                 0.6192
 IR Inten    --     2.1250                 0.4941                 2.7742

                    31                     32                     33
                     A                      A                      A
 Frequencies --   439.3592               450.8729               453.1030
 Red. masses --     2.9605                 4.0045                 4.9896
 Frc consts  --     0.3367                 0.4796                 0.6035
 IR Inten    --     2.7674                 1.3135                 1.8603

                    34                     35                     36
                     A                      A                      A
 Frequencies --   476.2325               514.1613               522.0115
 Red. masses --     4.3228                 3.6153                 4.2239
 Frc consts  --     0.5776                 0.5631                 0.6781
 IR Inten    --     1.3894                 1.0924                 1.5762

                    37                     38                     39
                     A                      A                      A
 Frequencies --   537.3422               565.6806               575.2290
 Red. masses --     5.3281                 3.3681                 4.2386
 Frc consts  --     0.9064                 0.6350                 0.8263
 IR Inten    --     0.1694                 6.9784                 1.5286

                    40                     41                     42
                     A                      A                      A
 Frequencies --   583.1031               587.7825               607.4086
 Red. masses --     4.2982                 4.6056                 4.7713
 Frc consts  --     0.8611                 0.9375                 1.0372
 IR Inten    --     2.2832                 0.5955                18.9291

                    43                     44                     45
                     A                      A                      A
 Frequencies --   626.9352               642.7838               652.3734
 Red. masses --     7.3622                 6.7030                 6.3371
 Frc consts  --     1.7049                 1.6317                 1.5890
 IR Inten    --     4.6573                 2.7912                 0.8163

                    46                     47                     48
                     A                      A                      A
 Frequencies --   669.6425               682.4443               705.8427
 Red. masses --     7.5852                 6.5511                 6.3059
 Frc consts  --     2.0040                 1.7976                 1.8510
 IR Inten    --     3.6040                13.7650                 9.5813

                    49                     50                     51
                     A                      A                      A
 Frequencies --   720.9334               730.9336               735.0519
 Red. masses --     2.7242                 2.1084                 5.0490
 Frc consts  --     0.8342                 0.6637                 1.6073
 IR Inten    --    23.0139                16.4199                 8.4482

                    52                     53                     54
                     A                      A                      A
 Frequencies --   750.7000               760.5137               786.5037
 Red. masses --     3.7609                 1.3901                 3.5265
 Frc consts  --     1.2488                 0.4737                 1.2853
 IR Inten    --     6.1769                46.6052                 1.5782

                    55                     56                     57
                     A                      A                      A
 Frequencies --   787.6735               798.2519               822.1607
 Red. masses --     4.9542                 5.9109                 1.6485
 Frc consts  --     1.8110                 2.2191                 0.6565
 IR Inten    --     2.7489                 6.2492                24.8399

                    58                     59                     60
                     A                      A                      A
 Frequencies --   830.9958               838.3465               856.1929
 Red. masses --     5.8427                 1.2563                 2.4616
 Frc consts  --     2.3772                 0.5202                 1.0632
 IR Inten    --    46.1427                 0.5117                10.7806

                    61                     62                     63
                     A                      A                      A
 Frequencies --   864.3912               865.2681               888.8545
 Red. masses --     1.9665                 1.5857                 3.7797
 Frc consts  --     0.8657                 0.6995                 1.7594
 IR Inten    --    21.4237                 2.9402                20.2455

                    64                     65                     66
                     A                      A                      A
 Frequencies --   902.6901               922.2426               939.8311
 Red. masses --     2.1315                 4.4908                 1.3456
 Frc consts  --     1.0233                 2.2504                 0.7003
 IR Inten    --     7.7905                 3.0174                 2.8153

                    67                     68                     69
                     A                      A                      A
 Frequencies --   947.7912               959.6908               960.9498
 Red. masses --     1.3451                 1.4344                 3.0582
 Frc consts  --     0.7119                 0.7784                 1.6639
 IR Inten    --     0.5588                 7.9707                72.8651

                    70                     71                     72
                     A                      A                      A
 Frequencies --   964.5419               969.4884               976.1964
 Red. masses --     1.4089                 1.4161                 1.4511
 Frc consts  --     0.7723                 0.7842                 0.8148
 IR Inten    --     0.1032                 1.0017                 0.9561

                    73                     74                     75
                     A                      A                      A
 Frequencies --   982.5675               998.8268              1004.5969
 Red. masses --     1.3706                 1.2920                 1.3902
 Frc consts  --     0.7796                 0.7594                 0.8266
 IR Inten    --     0.6729                 0.0506                 0.6080

                    76                     77                     78
                     A                      A                      A
 Frequencies --  1009.8086              1016.3298              1025.3534
 Red. masses --     2.3836                 4.8023                 2.0165
 Frc consts  --     1.4321                 2.9226                 1.2491
 IR Inten    --    65.1831                 5.9657                 9.7628

                    79                     80                     81
                     A                      A                      A
 Frequencies --  1031.2613              1033.5723              1047.6262
 Red. masses --     5.0408                 3.2781                 3.8056
 Frc consts  --     3.1586                 2.0633                 2.4608
 IR Inten    --     7.5167                 6.8149                 0.8820

                    82                     83                     84
                     A                      A                      A
 Frequencies --  1079.2981              1093.6089              1121.1227
 Red. masses --     1.9542                 3.2004                 1.8536
 Frc consts  --     1.3413                 2.2552                 1.3727
 IR Inten    --     0.5632                75.8693                30.7748

                    85                     86                     87
                     A                      A                      A
 Frequencies --  1128.4791              1133.0785              1137.5191
 Red. masses --     2.1841                 2.8747                 1.4064
 Frc consts  --     1.6388                 2.1745                 1.0722
 IR Inten    --     2.9129                23.8667                 3.5169

                    88                     89                     90
                     A                      A                      A
 Frequencies --  1146.3022              1147.6841              1178.2945
 Red. masses --     1.4413                 1.4186                 1.6292
 Frc consts  --     1.1159                 1.1009                 1.3327
 IR Inten    --     2.2192                 6.9228                 4.9396

                    91                     92                     93
                     A                      A                      A
 Frequencies --  1179.0514              1207.8863              1219.5120
 Red. masses --     2.4241                 1.1685                 1.7097
 Frc consts  --     1.9855                 1.0045                 1.4981
 IR Inten    --    16.6202                26.9784                54.9182

                    94                     95                     96
                     A                      A                      A
 Frequencies --  1220.4620              1227.0656              1260.7278
 Red. masses --     1.5946                 1.6637                 3.0663
 Frc consts  --     1.3994                 1.4759                 2.8715
 IR Inten    --    71.5583               159.3683                93.9910

                    97                     98                     99
                     A                      A                      A
 Frequencies --  1269.5332              1287.1008              1291.9557
 Red. masses --     2.6910                 4.4904                 3.6409
 Frc consts  --     2.5554                 4.3829                 3.5805
 IR Inten    --     8.0199                 3.0765                 3.5940

                   100                    101                    102
                     A                      A                      A
 Frequencies --  1295.1921              1313.9756              1319.5353
 Red. masses --     1.7184                 2.6331                 1.6863
 Frc consts  --     1.6984                 2.6785                 1.7299
 IR Inten    --     3.6055                 4.6877                59.2623

                   103                    104                    105
                     A                      A                      A
 Frequencies --  1325.8884              1329.2996              1335.4225
 Red. masses --     2.0371                 1.5457                 2.3994
 Frc consts  --     2.1099                 1.6092                 2.5211
 IR Inten    --     1.3830                 0.6330                43.6474

                   106                    107                    108
                     A                      A                      A
 Frequencies --  1345.6235              1357.7342              1364.1180
 Red. masses --     1.5162                 1.7469                 1.5129
 Frc consts  --     1.6175                 1.8974                 1.6587
 IR Inten    --    37.8264                 3.4930                32.8775

                   109                    110                    111
                     A                      A                      A
 Frequencies --  1377.3377              1405.2840              1427.8965
 Red. masses --     3.8552                 1.9846                 2.1741
 Frc consts  --     4.3090                 2.3092                 2.6117
 IR Inten    --    22.8247               213.9766                 8.3258

                   112                    113                    114
                     A                      A                      A
 Frequencies --  1430.5172              1435.5889              1440.8105
 Red. masses --     3.2201                 1.8950                 3.0953
 Frc consts  --     3.8825                 2.3010                 3.7858
 IR Inten    --     4.0650                15.4330                46.3453

                   115                    116                    117
                     A                      A                      A
 Frequencies --  1452.7806              1459.4691              1463.0608
 Red. masses --     2.3801                 2.7505                 1.6905
 Frc consts  --     2.9597                 3.4519                 2.1321
 IR Inten    --   102.3843                48.6433                20.7617

                   118                    119                    120
                     A                      A                      A
 Frequencies --  1469.8350              1489.9030              1502.5641
 Red. masses --     1.5472                 3.5771                 2.3033
 Frc consts  --     1.9694                 4.6783                 3.0639
 IR Inten    --     5.7289                25.6326                61.2667

                   121                    122                    123
                     A                      A                      A
 Frequencies --  1530.0352              1547.3027              1602.9759
 Red. masses --     3.8016                 2.8294                 6.2086
 Frc consts  --     5.2434                 3.9911                 9.3993
 IR Inten    --    21.0208                83.1254                 2.1727

                   124                    125                    126
                     A                      A                      A
 Frequencies --  1603.4865              1622.1110              1630.8861
 Red. masses --     5.5871                 6.7085                 6.4158
 Frc consts  --     8.4638                10.4000                10.0542
 IR Inten    --     5.8162                 3.8911                18.5467

                   127                    128                    129
                     A                      A                      A
 Frequencies --  1635.9474              1637.9601              1660.3956
 Red. masses --     7.3653                 6.2405                 6.1668
 Frc consts  --    11.6139                 9.8646                10.0168
 IR Inten    --     2.7748                 1.9231                22.8585

                   130                    131                    132
                     A                      A                      A
 Frequencies --  1669.1571              1778.6112              3049.2328
 Red. masses --     7.4623                12.1282                 1.0641
 Frc consts  --    12.2496                22.6052                 5.8292
 IR Inten    --    14.5074               235.1047                23.4788

                   133                    134                    135
                     A                      A                      A
 Frequencies --  3054.6032              3092.5182              3115.5311
 Red. masses --     1.0630                 1.1003                 1.1009
 Frc consts  --     5.8439                 6.1999                 6.2959
 IR Inten    --    23.9309                 6.4748                 3.0371

                   136                    137                    138
                     A                      A                      A
 Frequencies --  3151.8433              3156.1559              3173.1675
 Red. masses --     1.0887                 1.0909                 1.0897
 Frc consts  --     6.3719                 6.4026                 6.4649
 IR Inten    --    25.1767                 8.8212                15.7113

                   139                    140                    141
                     A                      A                      A
 Frequencies --  3179.9193              3180.5123              3180.5694
 Red. masses --     1.0934                 1.0859                 1.0889
 Frc consts  --     6.5144                 6.4717                 6.4903
 IR Inten    --     2.2650                 1.3903                21.2597

                   142                    143                    144
                     A                      A                      A
 Frequencies --  3185.3437              3189.3390              3192.5242
 Red. masses --     1.0878                 1.0923                 1.0901
 Frc consts  --     6.5029                 6.5462                 6.5464
 IR Inten    --     1.3231                 0.8232                 7.0757

                   145                    146                    147
                     A                      A                      A
 Frequencies --  3194.1642              3200.1535              3203.2098
 Red. masses --     1.0899                 1.0974                 1.0945
 Frc consts  --     6.5516                 6.6214                 6.6168
 IR Inten    --    11.3544                15.4942                 6.5609

                   148                    149                    150
                     A                      A                      A
 Frequencies --  3207.8703              3212.5887              3247.6705
 Red. masses --     1.0950                 1.0971                 1.0932
 Frc consts  --     6.6392                 6.6715                 6.7938
 IR Inten    --    13.7416                 7.3852                 0.4417

 - Thermochemistry -
 -------------------
 Temperature   298.150 Kelvin.  Pressure   1.00000 Atm.
 Atom     1 has atomic number 17 and mass  34.96885

 Molecular mass:   454.13089 amu.
 Principal axes and moments of inertia in atomic units:
                           1         2         3
     Eigenvalues --  ******************************
           X            0.99993   0.01132  -0.00143
           Y           -0.01132   0.99992  -0.00479
           Z            0.00138   0.00481   0.99999
 This molecule is an asymmetric top.
 Rotational symmetry number  1.
 Warning -- assumption of classical behavior for rotation
           may cause significant error
 Rotational temperatures (Kelvin)      0.00602     0.00306     0.00224
 Rotational constants (GHZ):           0.12550     0.06379     0.04670
 Zero-point vibrational energy    1044697.7 (Joules/Mol)
                                  249.68875 (Kcal/Mol)
 Warning -- explicit consideration of  42 degrees of freedom as
           vibrations may cause significant error
 Vibrational temperatures:     16.56    18.71    25.82    31.54    37.39
          (Kelvin)             59.84    75.75    97.21    98.74   117.81
                              141.84   167.20   216.09   222.16   252.47
                              294.57   305.98   327.97   331.31   344.24
                              377.10   431.48   480.07   499.47   506.02
                              553.03   594.81   600.60   607.38   628.37
                              632.14   648.70   651.91   685.19   739.76
                              751.06   773.11   813.89   827.63   838.95
                              845.69   873.92   902.02   924.82   938.62
                              963.46   981.88  1015.55  1037.26  1051.65
                             1057.57  1080.09  1094.21  1131.60  1133.29
                             1148.50  1182.90  1195.62  1206.19  1231.87
                             1243.66  1244.93  1278.86  1298.77  1326.90
                             1352.21  1363.66  1380.78  1382.59  1387.76
                             1394.88  1404.53  1413.69  1437.09  1445.39
                             1452.89  1462.27  1475.25  1483.75  1487.08
                             1507.30  1552.87  1573.46  1613.04  1623.63
                             1630.25  1636.63  1649.27  1651.26  1695.30
                             1696.39  1737.88  1754.60  1755.97  1765.47
                             1813.90  1826.57  1851.85  1858.83  1863.49
                             1890.52  1898.51  1907.66  1912.56  1921.37
                             1936.05  1953.47  1962.66  1981.68  2021.89
                             2054.42  2058.19  2065.49  2073.00  2090.22
                             2099.85  2105.02  2114.76  2143.64  2161.85
                             2201.38  2226.22  2306.32  2307.06  2333.85
                             2346.48  2353.76  2356.66  2388.94  2401.54
                             2559.02  4387.16  4394.89  4449.44  4482.55
                             4534.79  4541.00  4565.47  4575.19  4576.04
                             4576.12  4582.99  4588.74  4593.32  4595.68
                             4604.30  4608.70  4615.40  4622.19  4672.67

 Zero-point correction=                           0.397904 (Hartree/Particle)
 Thermal correction to Energy=                    0.424430
 Thermal correction to Enthalpy=                  0.425374
 Thermal correction to Gibbs Free Energy=         0.335131
 Sum of electronic and zero-point Energies=          -1827.707114
 Sum of electronic and thermal Energies=             -1827.680588
 Sum of electronic and thermal Enthalpies=           -1827.679644
 Sum of electronic and thermal Free Energies=        -1827.769887

                     E (Thermal)             CV                S
                      KCal/Mol        Cal/Mol-Kelvin    Cal/Mol-Kelvin
 Total                  266.334            103.126            189.932
 Electronic               0.000              0.000              0.000
 Translational            0.889              2.981             44.229
 Rotational               0.889              2.981             37.995
 Vibrational            264.556             97.164            107.708
 Vibration     1          0.593              1.987              7.732
 Vibration     2          0.593              1.987              7.490
 Vibration     3          0.593              1.986              6.849
 Vibration     4          0.593              1.985              6.452
 Vibration     5          0.593              1.985              6.114
 Vibration     6          0.594              1.981              5.182
 Vibration     7          0.596              1.977              4.715
 Vibration     8          0.598              1.970              4.223
 Vibration     9          0.598              1.969              4.192
 Vibration    10          0.600              1.962              3.845
 Vibration    11          0.604              1.950              3.482
 Vibration    12          0.608              1.936              3.162
 Vibration    13          0.618              1.902              2.670
 Vibration    14          0.620              1.898              2.617
 Vibration    15          0.627              1.873              2.376
 Vibration    16          0.640              1.833              2.090
 Vibration    17          0.644              1.822              2.021
 Vibration    18          0.651              1.798              1.895
 Vibration    19          0.652              1.795              1.877
 Vibration    20          0.657              1.780              1.808
 Vibration    21          0.669              1.742              1.648
 Vibration    22          0.692              1.674              1.418
 Vibration    23          0.715              1.608              1.242
 Vibration    24          0.725              1.581              1.179
 Vibration    25          0.728              1.572              1.159
 Vibration    26          0.753              1.504              1.022
 Vibration    27          0.777              1.441              0.915
 Vibration    28          0.780              1.432              0.901
 Vibration    29          0.784              1.422              0.885
 Vibration    30          0.797              1.390              0.837
 Vibration    31          0.799              1.384              0.829
 Vibration    32          0.810              1.359              0.793
 Vibration    33          0.812              1.354              0.786
 Vibration    34          0.833              1.303              0.720
 Vibration    35          0.869              1.219              0.624
 Vibration    36          0.877              1.201              0.605
 Vibration    37          0.892              1.167              0.571
 Vibration    38          0.922              1.106              0.513
 Vibration    39          0.932              1.085              0.494
 Vibration    40          0.940              1.068              0.480
 Vibration    41          0.945              1.058              0.471
 Vibration    42          0.966              1.016              0.437

 Optimization completed.
    -- Stationary point found.
 Normal termination of Gaussian 09 at Wed Sep  7 13:44:58 2022.
