 Gaussian 09, Revision C.01,
 Gaussian 09:  EM64L-G09RevC.01 23-Sep-2011

 -------------------------
 #p opt freq b3lyp/cc-pvdz
 -------------------------

 (Enter /opt/gaussian/l101.exe)
 ---------
 Mol36.log
 ---------
 Charge =  0 Multiplicity = 1

 SCF Done:  E(RB3LYP) =  -1789.97841925     A.U. after   15 cycles
 SCF Done:  E(RB3LYP) =  -1789.98894678     A.U. after   13 cycles
 SCF Done:  E(RB3LYP) =  -1789.98950496     A.U. after   13 cycles
 SCF Done:  E(RB3LYP) =  -1789.98965938     A.U. after   12 cycles
 SCF Done:  E(RB3LYP) =  -1789.98968807     A.U. after   12 cycles
 SCF Done:  E(RB3LYP) =  -1789.98977633     A.U. after   11 cycles
 SCF Done:  E(RB3LYP) =  -1789.98979521     A.U. after   11 cycles
 SCF Done:  E(RB3LYP) =  -1789.98980120     A.U. after   11 cycles
 SCF Done:  E(RB3LYP) =  -1789.98980711     A.U. after   10 cycles
 SCF Done:  E(RB3LYP) =  -1789.98981019     A.U. after   10 cycles
 SCF Done:  E(RB3LYP) =  -1789.98981197     A.U. after   10 cycles
 SCF Done:  E(RB3LYP) =  -1789.98981301     A.U. after   10 cycles
 SCF Done:  E(RB3LYP) =  -1789.98981407     A.U. after   10 cycles
 SCF Done:  E(RB3LYP) =  -1789.98981479     A.U. after    8 cycles
 SCF Done:  E(RB3LYP) =  -1789.98981533     A.U. after    8 cycles
 SCF Done:  E(RB3LYP) =  -1789.98981570     A.U. after    8 cycles
 SCF Done:  E(RB3LYP) =  -1789.98981582     A.U. after    7 cycles
 Optimization completed.
    -- Stationary point found.
 Normal termination of Gaussian 09 at Thu Sep  8 00:36:49 2022.

 -------------------------------------------------------------------
 #P Geom=AllCheck Guess=TCheck SCRF=Check GenChk RB3LYP/CC-pVDZ Freq
 -------------------------------------------------------------------

 Structure from the checkpoint file:  /home/scr/lqcapf-6/Gau-314546.chk
 ---------
 Mol36.log
 ---------
 Charge =  0 Multiplicity = 1

                         Standard orientation:
 ---------------------------------------------------------------------
 Center     Atomic      Atomic             Coordinates (Angstroms)
 Number     Number       Type             X           Y           Z
 ---------------------------------------------------------------------
      1         17           0       -2.529419    6.010248   -0.369212
      2          6           0       -1.816918    4.508775    0.204831
      3          6           0       -1.798178    4.237717    1.575784
      4          6           0       -1.231767    3.038823    2.010190
      5          6           0       -0.691928    2.127597    1.095652
      6          6           0       -0.713457    2.407786   -0.276384
      7          6           0       -1.286295    3.609875   -0.719441
      8          6           0       -0.118235    1.465489   -1.317903
      9          7           0        0.242899    0.124005   -0.849468
     10          6           0       -0.721983   -0.859364   -0.663194
     11          8           0       -0.482908   -1.957946   -0.197847
     12          6           0       -2.157959   -0.483717   -1.085648
     13          7           0       -3.066008   -1.593255   -0.950449
     14          7           0       -3.554005   -2.194840   -2.079451
     15          7           0       -4.351552   -3.149991   -1.747333
     16          6           0       -4.411890   -3.208790   -0.368027
     17          6           0       -5.140490   -4.059100    0.482436
     18          6           0       -5.003138   -3.866308    1.849814
     19          6           0       -4.157222   -2.853845    2.370618
     20          6           0       -3.426731   -2.008070    1.545643
     21          6           0       -3.573880   -2.204709    0.162746
     22          6           0        1.627122   -0.145182   -0.570193
     23          6           0        2.438394    0.853813   -0.009429
     24          6           0        3.793823    0.622922    0.224142
     25          6           0        4.392513   -0.608762   -0.090661
     26          6           0        3.565565   -1.600972   -0.650666
     27          6           0        2.211116   -1.382285   -0.887911
     28          6           0        5.819938   -0.858114    0.152407
     29          6           0        6.850833    0.072005    0.261519
     30          7           0        7.987809   -0.636019    0.484923
     31          7           0        7.790150   -1.967001    0.535442
     32          6           0        6.482225   -2.107908    0.332562
     33          1           0       -2.221967    4.952537    2.281292
     34          1           0       -1.210208    2.811524    3.078148
     35          1           0       -0.250659    1.196118    1.453728
     36          1           0       -1.322158    3.849853   -1.784120
     37          1           0       -0.813433    1.384927   -2.167690
     38          1           0        0.795761    1.914752   -1.732008
     39          1           0       -2.519487    0.375463   -0.498562
     40          1           0       -2.188965   -0.203149   -2.147926
     41          1           0       -5.785211   -4.835328    0.067675
     42          1           0       -5.551190   -4.505753    2.544751
     43          1           0       -4.073144   -2.742102    3.453934
     44          1           0       -2.762344   -1.246491    1.954677
     45          1           0        2.013854    1.818829    0.270823
     46          1           0        4.388254    1.413416    0.687198
     47          1           0        3.994828   -2.564796   -0.931183
     48          1           0        1.605969   -2.175460   -1.320107
     49          1           0        6.859859    1.155074    0.175048
     50          1           0        6.045478   -3.104595    0.341891
     51          1           0        8.924361   -0.271821    0.602841
 ---------------------------------------------------------------------

 SCF Done:  E(RB3LYP) =  -1789.98981582     A.U. after    1 cycles

 The electronic state is 1-A.
 Alpha  occ. eigenvalues -- -101.55710 -19.12928 -14.41226 -14.41127 -14.39051
 Alpha  occ. eigenvalues --  -14.38944 -14.35042 -14.34723 -10.31037 -10.26966
 Alpha  occ. eigenvalues --  -10.26121 -10.25912 -10.24291 -10.23247 -10.23186
 Alpha  occ. eigenvalues --  -10.23123 -10.22241 -10.22199 -10.22045 -10.21719
 Alpha  occ. eigenvalues --  -10.21037 -10.20978 -10.20881 -10.20409 -10.20367
 Alpha  occ. eigenvalues --  -10.20130 -10.20006 -10.19821 -10.19802 -10.19752
 Alpha  occ. eigenvalues --  -10.19665 -10.19412  -9.47527  -7.23787  -7.22815
 Alpha  occ. eigenvalues --   -7.22774  -1.09393  -1.06142  -1.05336  -0.96928
 Alpha  occ. eigenvalues --   -0.92481  -0.90911  -0.86908  -0.86377  -0.85652
 Alpha  occ. eigenvalues --   -0.82524  -0.80889  -0.79618  -0.77957  -0.77008
 Alpha  occ. eigenvalues --   -0.76043  -0.75631  -0.75159  -0.73828  -0.71911
 Alpha  occ. eigenvalues --   -0.66068  -0.64843  -0.63547  -0.62952  -0.62333
 Alpha  occ. eigenvalues --   -0.61969  -0.60285  -0.60232  -0.58415  -0.56635
 Alpha  occ. eigenvalues --   -0.55222  -0.54331  -0.53071  -0.52677  -0.52382
 Alpha  occ. eigenvalues --   -0.52017  -0.49532  -0.48686  -0.47719  -0.47563
 Alpha  occ. eigenvalues --   -0.46784  -0.46649  -0.46181  -0.45647  -0.45010
 Alpha  occ. eigenvalues --   -0.44778  -0.44729  -0.44512  -0.44260  -0.43605
 Alpha  occ. eigenvalues --   -0.43305  -0.42772  -0.41775  -0.40865  -0.40666
 Alpha  occ. eigenvalues --   -0.39881  -0.38656  -0.37927  -0.37882  -0.37781
 Alpha  occ. eigenvalues --   -0.37526  -0.36648  -0.35658  -0.35479  -0.34643
 Alpha  occ. eigenvalues --   -0.33014  -0.32656  -0.31452  -0.31108  -0.29537
 Alpha  occ. eigenvalues --   -0.28214  -0.27633  -0.27214  -0.26625  -0.26481
 Alpha  occ. eigenvalues --   -0.26271  -0.26124  -0.24893  -0.23442  -0.21802
 Alpha virt. eigenvalues --   -0.04329  -0.04134  -0.03677  -0.03599  -0.01888
 Alpha virt. eigenvalues --    0.00276   0.00842   0.01374   0.01745   0.03555
 Alpha virt. eigenvalues --    0.04085   0.04700   0.05543   0.06097   0.06931

 Mulliken atomic charges:
              1
     1  Cl  -0.078723
     2  C   -0.143181
     3  C    0.118538
     4  C    0.052351
     5  C    0.022675
     6  C   -0.087834
     7  C    0.118667
     8  C    0.152789
     9  N   -0.282583
    10  C    0.127720
    11  O   -0.236483
    12  C    0.122771
    13  N   -0.227943
    14  N   -0.060850
    15  N   -0.181770
    16  C    0.011200
    17  C    0.044819
    18  C    0.037889
    19  C    0.039559
    20  C    0.031652
    21  C    0.213485
    22  C    0.096370
    23  C    0.024820
    24  C   -0.002124
    25  C    0.063498
    26  C   -0.001717
    27  C    0.081063
    28  C   -0.060955
    29  C    0.089587
    30  N    0.003222
    31  N   -0.170716
    32  C    0.091118
    33  H   -0.015593
    34  H   -0.012678
    35  H   -0.013939
    36  H   -0.032260
    37  H    0.041854
    38  H    0.052868
    39  H    0.057480
    40  H    0.061889
    41  H   -0.022048
    42  H   -0.027036
    43  H   -0.025836
    44  H   -0.032216
    45  H   -0.027196
    46  H   -0.047807
    47  H   -0.036235
    48  H   -0.014854
    49  H   -0.003070
    50  H   -0.013452
    51  H    0.101214
 Sum of Mulliken atomic charges =   0.00000

 Dipole moment (field-independent basis, Debye):
    X=              3.2482    Y=              5.5886    Z=              2.3211  Tot=              6.8681
 Quadrupole moment (field-independent basis, Debye-Ang):
   XX=           -182.9511   YY=           -202.7768   ZZ=           -187.4384
   XY=             13.0918   XZ=            -13.8328   YZ=             -5.2218

  Exact polarizability: 377.317  -1.438 330.934   6.755  -4.122 243.300
 Approx polarizability: 500.266  13.499 529.857  22.014  -4.937 455.421

                     1                      2                      3
                     A                      A                      A
 Frequencies --    11.3279                13.0916                18.2725
 Red. masses --     6.7661                10.1769                 6.6200
 Frc consts  --     0.0005                 0.0010                 0.0013
 IR Inten    --     0.7678                 0.9593                 0.6126

                     4                      5                      6
                     A                      A                      A
 Frequencies --    22.6015                25.7609                38.9310
 Red. masses --     4.5595                 6.6373                 4.3045
 Frc consts  --     0.0014                 0.0026                 0.0038
 IR Inten    --     1.4258                 0.2299                 1.7046

                     7                      8                      9
                     A                      A                      A
 Frequencies --    54.1967                60.3744                69.4331
 Red. masses --     6.2334                 4.6886                 5.5316
 Frc consts  --     0.0108                 0.0101                 0.0157
 IR Inten    --     0.4888                 0.1733                 1.7679

                    10                     11                     12
                     A                      A                      A
 Frequencies --    82.6864               103.3239               127.9080
 Red. masses --     6.7930                 6.8891                 6.4060
 Frc consts  --     0.0274                 0.0433                 0.0617
 IR Inten    --     2.5582                 0.3022                 2.4137

                    13                     14                     15
                     A                      A                      A
 Frequencies --   151.5966               158.2881               179.9789
 Red. masses --     5.9480                 7.5043                 6.4610
 Frc consts  --     0.0805                 0.1108                 0.1233
 IR Inten    --     0.6520                 2.0043                 0.5547

                    16                     17                     18
                     A                      A                      A
 Frequencies --   204.6254               221.1251               228.0419
 Red. masses --     4.9780                 5.8169                 4.8307
 Frc consts  --     0.1228                 0.1676                 0.1480
 IR Inten    --     0.0067                 3.2910                 0.8501

                    19                     20                     21
                     A                      A                      A
 Frequencies --   233.5081               253.8285               268.9107
 Red. masses --     5.8016                 3.6672                 4.4779
 Frc consts  --     0.1864                 0.1392                 0.1908
 IR Inten    --     0.7274                 1.0770                 3.3556

                    22                     23                     24
                     A                      A                      A
 Frequencies --   308.2842               345.2676               353.9448
 Red. masses --     3.4565                 6.8754                 5.8544
 Frc consts  --     0.1935                 0.4829                 0.4321
 IR Inten    --     2.4888                 0.8573                 1.4745

                    25                     26                     27
                     A                      A                      A
 Frequencies --   393.3967               412.8741               415.6704
 Red. masses --     8.0234                 6.0618                 3.1549
 Frc consts  --     0.7316                 0.6088                 0.3212
 IR Inten    --    16.6956                 1.7342                 1.4708

                    28                     29                     30
                     A                      A                      A
 Frequencies --   427.8551               430.3271               439.2451
 Red. masses --     3.5460                 7.2288                 2.8880
 Frc consts  --     0.3825                 0.7887                 0.3283
 IR Inten    --     2.2348                 3.6633                 2.3352

                    31                     32                     33
                     A                      A                      A
 Frequencies --   444.7878               460.5770               475.9429
 Red. masses --     2.7922                 3.9633                 4.2393
 Frc consts  --     0.3255                 0.4953                 0.5658
 IR Inten    --     2.7251                 1.3270                 1.8455

                    34                     35                     36
                     A                      A                      A
 Frequencies --   529.4993               532.1726               538.0221
 Red. masses --     3.0770                 2.1903                 4.2911
 Frc consts  --     0.5083                 0.3655                 0.7318
 IR Inten    --    17.0439                34.8162                 2.4645

                    37                     38                     39
                     A                      A                      A
 Frequencies --   547.0733               575.0093               584.5882
 Red. masses --     2.8107                 4.1673                 4.0240
 Frc consts  --     0.4956                 0.8118                 0.8102
 IR Inten    --     0.3154                 0.9747                 1.1015

                    40                     41                     42
                     A                      A                      A
 Frequencies --   594.9105               608.3494               645.7674
 Red. masses --     4.9923                 5.2418                 5.7408
 Frc consts  --     1.0410                 1.1430                 1.4105
 IR Inten    --     1.3670                20.9049                 0.7906

                    43                     44                     45
                     A                      A                      A
 Frequencies --   660.6549               663.3173               671.3917
 Red. masses --     6.3863                 2.3072                 6.5290
 Frc consts  --     1.6423                 0.5981                 1.7340
 IR Inten    --     0.6802                 1.3636                 5.9038

                    46                     47                     48
                     A                      A                      A
 Frequencies --   684.5867               696.4992               703.0684
 Red. masses --     5.4627                 2.8532                 2.8480
 Frc consts  --     1.5084                 0.8155                 0.8295
 IR Inten    --    21.5897                35.1776                10.3132

                    49                     50                     51
                     A                      A                      A
 Frequencies --   715.2371               750.3212               759.6323
 Red. masses --     5.1129                 3.2697                 1.3878
 Frc consts  --     1.5411                 1.0845                 0.4718
 IR Inten    --    15.6213                 7.0681                45.6079

                    52                     53                     54
                     A                      A                      A
 Frequencies --   773.9332               786.2436               793.6641
 Red. masses --     5.7000                 3.4254                 4.1567
 Frc consts  --     2.0115                 1.2476                 1.5427
 IR Inten    --     6.0571                 1.6855                 6.6078

                    55                     56                     57
                     A                      A                      A
 Frequencies --   796.6259               797.4829               829.4481
 Red. masses --     1.5464                 1.4005                 5.8846
 Frc consts  --     0.5782                 0.5248                 2.3853
 IR Inten    --    14.4542                14.3971                60.6838

                    58                     59                     60
                     A                      A                      A
 Frequencies --   835.6899               854.6358               856.7390
 Red. masses --     1.2594                 1.8423                 3.1955
 Frc consts  --     0.5182                 0.7928                 1.3819
 IR Inten    --     1.5783                29.4580                28.9645

                    61                     62                     63
                     A                      A                      A
 Frequencies --   864.1851               876.8984               883.5454
 Red. masses --     1.5749                 2.3569                 1.5902
 Frc consts  --     0.6930                 1.0678                 0.7314
 IR Inten    --     0.7566                10.7130                 3.3646

                    64                     65                     66
                     A                      A                      A
 Frequencies --   901.2641               921.9542               928.6234
 Red. masses --     1.7627                 3.6617                 1.4905
 Frc consts  --     0.8436                 1.8338                 0.7573
 IR Inten    --     2.3681                 3.1120                 1.5969

                    67                     68                     69
                     A                      A                      A
 Frequencies --   946.7885               958.2504               959.7433
 Red. masses --     5.3736                 1.4113                 4.6697
 Frc consts  --     2.8381                 0.7635                 2.5342
 IR Inten    --    26.0390                 6.7736                59.6209

                    70                     71                     72
                     A                      A                      A
 Frequencies --   961.5245               965.9964               978.9073
 Red. masses --     3.6198                 1.4009                 1.3563
 Frc consts  --     1.9718                 0.7702                 0.7657
 IR Inten    --    40.4373                 2.5619                 1.0771

                    73                     74                     75
                     A                      A                      A
 Frequencies --   997.3172              1000.2104              1009.1045
 Red. masses --     1.2912                 1.5297                 2.7336
 Frc consts  --     0.7567                 0.9016                 1.6401
 IR Inten    --     0.1186                 9.6451                19.9329

                    76                     77                     78
                     A                      A                      A
 Frequencies --  1012.4058              1024.8360              1029.2377
 Red. masses --     2.9534                 2.0262                 2.7163
 Frc consts  --     1.7836                 1.2538                 1.6954
 IR Inten    --    15.9395                 9.0332                 2.1124

                    79                     80                     81
                     A                      A                      A
 Frequencies --  1047.9005              1095.0108              1100.6184
 Red. masses --     1.6420                 3.1939                 1.8962
 Frc consts  --     1.0623                 2.2564                 1.3534
 IR Inten    --    32.9045                69.2374                14.0711

                    82                     83                     84
                     A                      A                      A
 Frequencies --  1112.1610              1115.8861              1127.9409
 Red. masses --     1.6977                 2.6461                 2.1708
 Frc consts  --     1.2372                 1.9413                 1.6272
 IR Inten    --    23.1612                21.8997                 4.5706

                    85                     86                     87
                     A                      A                      A
 Frequencies --  1133.6058              1146.0933              1148.4817
 Red. masses --     2.4872                 1.4275                 1.5957
 Frc consts  --     1.8832                 1.1047                 1.2401
 IR Inten    --    13.9938                 2.0515                 4.4141

                    88                     89                     90
                     A                      A                      A
 Frequencies --  1169.9172              1177.7350              1180.9514
 Red. masses --     2.0949                 1.5560                 1.1193
 Frc consts  --     1.6893                 1.2716                 0.9197
 IR Inten    --     9.8139                 7.5829                 1.6190

                    91                     92                     93
                     A                      A                      A
 Frequencies --  1205.4053              1210.1235              1225.1964
 Red. masses --     2.3823                 1.2278                 1.5968
 Frc consts  --     2.0394                 1.0594                 1.4122
 IR Inten    --    17.4744                27.6575               240.7440

                    94                     95                     96
                     A                      A                      A
 Frequencies --  1236.5666              1259.6416              1270.0440
 Red. masses --     1.5781                 3.3587                 2.6873
 Frc consts  --     1.4217                 3.1399                 2.5539
 IR Inten    --     3.8641                80.5862                 6.8965

                    97                     98                     99
                     A                      A                      A
 Frequencies --  1295.4189              1295.6590              1308.3670
 Red. masses --     1.5900                 1.7116                 2.2075
 Frc consts  --     1.5721                 1.6929                 2.2264
 IR Inten    --     5.9373                 5.3460                 3.9301

                   100                    101                    102
                     A                      A                      A
 Frequencies --  1319.5484              1332.5677              1340.3782
 Red. masses --     1.6743                 1.7771                 1.9874
 Frc consts  --     1.7177                 1.8593                 2.1038
 IR Inten    --    58.5427                24.4907                23.4615

                   103                    104                    105
                     A                      A                      A
 Frequencies --  1347.0287              1351.1910              1369.4241
 Red. masses --     2.1770                 3.0603                 2.2729
 Frc consts  --     2.3274                 3.2919                 2.5114
 IR Inten    --    52.4640                 0.3802                24.9635

                   106                    107                    108
                     A                      A                      A
 Frequencies --  1376.8486              1388.6298              1406.3203
 Red. masses --     3.3995                 4.6827                 2.0288
 Frc consts  --     3.7970                 5.3202                 2.3640
 IR Inten    --    24.3128                22.0544               151.1732

                   109                    110                    111
                     A                      A                      A
 Frequencies --  1419.4962              1428.6060              1435.2960
 Red. masses --     3.9997                 2.9225                 2.1731
 Frc consts  --     4.7484                 3.5143                 2.6376
 IR Inten    --    75.7127                 4.5401                 9.2237

                   112                    113                    114
                     A                      A                      A
 Frequencies --  1441.1281              1453.4256              1458.9668
 Red. masses --     2.5592                 2.5880                 3.1834
 Frc consts  --     3.1316                 3.2211                 3.9924
 IR Inten    --    50.5199                32.2581                21.2464

                   115                    116                    117
                     A                      A                      A
 Frequencies --  1469.7482              1489.8466              1495.8135
 Red. masses --     1.1423                 3.5731                 2.4851
 Frc consts  --     1.4539                 4.6728                 3.2760
 IR Inten    --    23.6719                24.4503                 2.6809

                   118                    119                    120
                     A                      A                      A
 Frequencies --  1505.0234              1529.9703              1541.5834
 Red. masses --     2.4360                 3.7974                 2.6669
 Frc consts  --     3.2510                 5.2373                 3.7341
 IR Inten    --    39.8768                20.6806               105.0156

                   121                    122                    123
                     A                      A                      A
 Frequencies --  1609.9444              1617.6053              1624.1968
 Red. masses --     5.8027                 5.8563                 6.2551
 Frc consts  --     8.8614                 9.0286                 9.7222
 IR Inten    --    41.1864                29.9598                27.2858

                   124                    125                    126
                     A                      A                      A
 Frequencies --  1635.6257              1646.0532              1664.2600
 Red. masses --     7.3633                 6.4145                 6.2229
 Frc consts  --    11.6062                10.2400                10.1552
 IR Inten    --     2.5497                34.0703                 0.9105

                   127                    128                    129
                     A                      A                      A
 Frequencies --  1669.3826              1773.5575              3050.7731
 Red. masses --     7.4636                12.0834                 1.0640
 Frc consts  --    12.2549                22.3939                 5.8347
 IR Inten    --    14.4492               241.7271                22.4926

                   130                    131                    132
                     A                      A                      A
 Frequencies --  3056.2423              3094.6364              3117.5725
 Red. masses --     1.0634                 1.1003                 1.1006
 Frc consts  --     5.8525                 6.2085                 6.3027
 IR Inten    --    20.5301                 7.4797                 3.1910

                   133                    134                    135
                     A                      A                      A
 Frequencies --  3179.2714              3180.0164              3186.2269
 Red. masses --     1.0859                 1.0878                 1.0873
 Frc consts  --     6.4668                 6.4811                 6.5033
 IR Inten    --     1.9363                14.1447                 4.9664

                   136                    137                    138
                     A                      A                      A
 Frequencies --  3189.8743              3190.4330              3193.5308
 Red. masses --     1.0900                 1.0913                 1.0900
 Frc consts  --     6.5346                 6.5449                 6.5498
 IR Inten    --    10.6111                 0.6662                12.3212

                   139                    140                    141
                     A                      A                      A
 Frequencies --  3201.1979              3203.8782              3208.6355
 Red. masses --     1.0940                 1.0933                 1.0947
 Frc consts  --     6.6051                 6.6119                 6.6402
 IR Inten    --     7.6581                 1.3801                16.2251

                   142                    143                    144
                     A                      A                      A
 Frequencies --  3212.4782              3218.3282              3243.6070
 Red. masses --     1.0971                 1.0955                 1.0962
 Frc consts  --     6.6707                 6.6852                 6.7952
 IR Inten    --     6.3947                 1.8008                 1.2616

                   145                    146                    147
                     A                      A                      A
 Frequencies --  3245.9539              3263.1717              3644.3894
 Red. masses --     1.0933                 1.0983                 1.0825
 Frc consts  --     6.7869                 6.8903                 8.4710
 IR Inten    --     0.7167                 0.0644               139.3739

 - Thermochemistry -
 -------------------
 Temperature   298.150 Kelvin.  Pressure   1.00000 Atm.
 Atom     1 has atomic number 17 and mass  34.96885

 Molecular mass:   442.13089 amu.
 Principal axes and moments of inertia in atomic units:
                           1         2         3
     Eigenvalues --  ******************************
           X            0.99988   0.01442  -0.00473
           Y           -0.01443   0.99989  -0.00246
           Z            0.00469   0.00253   0.99999
 This molecule is an asymmetric top.
 Rotational symmetry number  1.
 Warning -- assumption of classical behavior for rotation
           may cause significant error
 Rotational temperatures (Kelvin)      0.00608     0.00342     0.00240
 Rotational constants (GHZ):           0.12665     0.07118     0.05010
 Zero-point vibrational energy    1030736.9 (Joules/Mol)
                                  246.35202 (Kcal/Mol)
 Warning -- explicit consideration of  41 degrees of freedom as
           vibrations may cause significant error
 Vibrational temperatures:     16.30    18.84    26.29    32.52    37.06
          (Kelvin)             56.01    77.98    86.87    99.90   118.97
                              148.66   184.03   218.11   227.74   258.95
                              294.41   318.15   328.10   335.97   365.20
                              386.90   443.55   496.76   509.25   566.01
                              594.03   598.06   615.59   619.14   631.97
                              639.95   662.67   684.77   761.83   765.68
                              774.09   787.12   827.31   841.09   855.94
                              875.28   929.11   950.53   954.36   965.98
                              984.97  1002.11  1011.56  1029.07  1079.54
                             1092.94  1113.52  1131.23  1141.90  1146.17
                             1147.40  1193.39  1202.37  1229.63  1232.65
                             1243.37  1261.66  1271.22  1296.72  1326.48
                             1336.08  1362.22  1378.71  1380.85  1383.42
                             1389.85  1408.43  1434.92  1439.08  1451.87
                             1456.62  1474.51  1480.84  1507.69  1575.47
                             1583.54  1600.15  1605.51  1622.85  1631.00
                             1648.97  1652.41  1683.25  1694.50  1699.12
                             1734.31  1741.10  1762.78  1779.14  1812.34
                             1827.31  1863.82  1864.16  1882.45  1898.53
                             1917.27  1928.50  1938.07  1944.06  1970.29
                             1980.98  1997.93  2023.38  2042.34  2055.44
                             2065.07  2073.46  2091.15  2099.13  2114.64
                             2143.55  2152.14  2165.39  2201.28  2217.99
                             2316.35  2327.37  2336.85  2353.30  2368.30
                             2394.50  2401.87  2551.75  4389.38  4397.25
                             4452.49  4485.49  4574.26  4575.33  4584.26
                             4589.51  4590.32  4594.77  4605.80  4609.66
                             4616.51  4622.03  4630.45  4666.82  4670.20
                             4694.97  5243.46

 Zero-point correction=                           0.392587 (Hartree/Particle)
 Thermal correction to Energy=                    0.418605
 Thermal correction to Enthalpy=                  0.419549
 Thermal correction to Gibbs Free Energy=         0.330308
 Sum of electronic and zero-point Energies=          -1789.597229
 Sum of electronic and thermal Energies=             -1789.571211
 Sum of electronic and thermal Enthalpies=           -1789.570267
 Sum of electronic and thermal Free Energies=        -1789.659508

                     E (Thermal)             CV                S
                      KCal/Mol        Cal/Mol-Kelvin    Cal/Mol-Kelvin
 Total                  262.678            101.163            187.823
 Electronic               0.000              0.000              0.000
 Translational            0.889              2.981             44.149
 Rotational               0.889              2.981             37.807
 Vibrational            260.901             95.201            105.867
 Vibration     1          0.593              1.987              7.763
 Vibration     2          0.593              1.987              7.476
 Vibration     3          0.593              1.986              6.814
 Vibration     4          0.593              1.985              6.391
 Vibration     5          0.593              1.985              6.132
 Vibration     6          0.594              1.981              5.313
 Vibration     7          0.596              1.976              4.658
 Vibration     8          0.597              1.973              4.445
 Vibration     9          0.598              1.969              4.169
 Vibration    10          0.600              1.961              3.826
 Vibration    11          0.605              1.947              3.391
 Vibration    12          0.611              1.925              2.977
 Vibration    13          0.619              1.901              2.652
 Vibration    14          0.621              1.893              2.570
 Vibration    15          0.629              1.867              2.329
 Vibration    16          0.640              1.833              2.091
 Vibration    17          0.648              1.809              1.950
 Vibration    18          0.651              1.798              1.894
 Vibration    19          0.654              1.790              1.852
 Vibration    20          0.665              1.756              1.704
 Vibration    21          0.673              1.730              1.603
 Vibration    22          0.698              1.658              1.372
 Vibration    23          0.724              1.585              1.188
 Vibration    24          0.730              1.567              1.149
 Vibration    25          0.761              1.484              0.987
 Vibration    26          0.777              1.442              0.917
 Vibration    27          0.779              1.436              0.907
 Vibration    28          0.789              1.410              0.866
 Vibration    29          0.792              1.404              0.858
 Vibration    30          0.799              1.385              0.829
 Vibration    31          0.804              1.372              0.812
 Vibration    32          0.818              1.337              0.764
 Vibration    33          0.833              1.303              0.721
 Vibration    34          0.884              1.185              0.588
 Vibration    35          0.887              1.179              0.582
 Vibration    36          0.893              1.166              0.570
 Vibration    37          0.902              1.146              0.550
 Vibration    38          0.931              1.085              0.495
 Vibration    39          0.942              1.065              0.477
 Vibration    40          0.953              1.043              0.458
 Vibration    41          0.967              1.014              0.436

 Normal termination of Gaussian 09 at Thu Sep  8 03:20:25 2022.
