 Gaussian 09, Revision C.01,
 Gaussian 09:  EM64L-G09RevC.01 23-Sep-2011

 -------------------------
 #p opt freq b3lyp/cc-pvdz
 -------------------------

 (Enter /opt/gaussian/l101.exe)
 ---------
 Mol37.log
 ---------
 Charge =  0 Multiplicity = 1

 SCF Done:  E(RB3LYP) =  -1789.98746284     A.U. after   16 cycles
 SCF Done:  E(RB3LYP) =  -1789.99797167     A.U. after   13 cycles
 SCF Done:  E(RB3LYP) =  -1789.99838302     A.U. after   12 cycles
 SCF Done:  E(RB3LYP) =  -1789.99848709     A.U. after   13 cycles
 SCF Done:  E(RB3LYP) =  -1789.99852207     A.U. after   12 cycles
 SCF Done:  E(RB3LYP) =  -1789.99856303     A.U. after   11 cycles
 SCF Done:  E(RB3LYP) =  -1789.99859336     A.U. after   12 cycles
 SCF Done:  E(RB3LYP) =  -1789.99860072     A.U. after   10 cycles
 SCF Done:  E(RB3LYP) =  -1789.99860464     A.U. after   10 cycles
 SCF Done:  E(RB3LYP) =  -1789.99860534     A.U. after   10 cycles
 SCF Done:  E(RB3LYP) =  -1789.99860592     A.U. after    8 cycles
 SCF Done:  E(RB3LYP) =  -1789.99860610     A.U. after    7 cycles
 SCF Done:  E(RB3LYP) =  -1789.99860626     A.U. after    7 cycles
 SCF Done:  E(RB3LYP) =  -1789.99860638     A.U. after    7 cycles
 SCF Done:  E(RB3LYP) =  -1789.99860646     A.U. after    7 cycles
 SCF Done:  E(RB3LYP) =  -1789.99860651     A.U. after    7 cycles
 Optimization completed.
    -- Stationary point found.
 Normal termination of Gaussian 09 at Thu Sep  8 06:48:48 2022.

 -------------------------------------------------------------------
 #P Geom=AllCheck Guess=TCheck SCRF=Check GenChk RB3LYP/CC-pVDZ Freq
 -------------------------------------------------------------------

 Structure from the checkpoint file:  /home/scr/lqcapf-6/Gau-317412.chk
 ---------
 Mol37.log
 ---------
 Charge =  0 Multiplicity = 1

                         Standard orientation:
 ---------------------------------------------------------------------
 Center     Atomic      Atomic             Coordinates (Angstroms)
 Number     Number       Type             X           Y           Z
 ---------------------------------------------------------------------
      1          6           0       -4.447515    0.117904    0.312697
      2          6           0       -5.096507    1.209974   -0.302690
      3          6           0       -5.087915   -1.115398    0.526130
      4          6           0       -6.435724    1.105306   -0.720463
      5          6           0       -6.411431   -1.195978    0.112117
      6          6           0       -7.079276   -0.104082   -0.500877
      7          7           0       -3.193719    0.604101    0.581147
      8          7           0       -4.210730    2.267113   -0.376327
      9          7           0       -3.092271    1.899355    0.150482
     10          6           0       -2.065694   -0.015747    1.256579
     11          6           0       -1.470408   -1.153802    0.412492
     12          7           0       -0.293948   -0.921528   -0.251723
     13          8           0       -2.071723   -2.223012    0.336555
     14          6           0        0.209896   -1.981569   -1.155006
     15          6           0        3.492089   -3.695329   -0.239563
     16          6           0        3.081691   -4.670288    0.669475
     17          6           0        2.576106   -2.823209   -0.832818
     18          6           0        1.721198   -4.765726    0.980900
     19          6           0        1.214878   -2.921633   -0.515089
     20          6           0        0.791790   -3.903987    0.396192
     21         17           0        5.199455   -3.557502   -0.651053
     22          6           0        2.357864    1.492755    0.808217
     23          6           0        2.061176    2.627594    0.028384
     24          6           0        1.578424    0.339188    0.733194
     25          6           0        0.951631    2.556959   -0.835995
     26          6           0        0.481316    0.285343   -0.137363
     27          6           0        0.177077    1.401713   -0.926129
     28          6           0        2.876803    3.846773    0.109723
     29          6           0        3.738488    4.239843    1.131457
     30          6           0        2.979496    4.909031   -0.836197
     31          7           0        4.265046    5.431921    0.754460
     32          7           0        3.821279    5.861092   -0.442735
     33          1           0       -4.555802   -1.963033    0.955706
     34          1           0       -6.934529    1.950990   -1.196197
     35          1           0       -6.953906   -2.133709    0.252304
     36          1           0       -8.119299   -0.227355   -0.810053
     37          1           0       -1.356596    0.789228    1.474361
     38          1           0       -2.411705   -0.467939    2.197959
     39          1           0       -0.670228   -2.547568   -1.487123
     40          1           0        0.659845   -1.479676   -2.022602
     41          1           0        3.813057   -5.342594    1.118960
     42          1           0        2.928130   -2.071859   -1.541403
     43          1           0        1.386538   -5.530515    1.685434
     44          1           0       -0.269636   -3.982912    0.637085
     45          1           0        3.222760    1.503801    1.474559
     46          1           0        1.822088   -0.530489    1.345291
     47          1           0        0.673261    3.426504   -1.433550
     48          1           0       -0.689388    1.374293   -1.588096
     49          1           0        3.991176    3.780165    2.082886
     50          1           0        2.482695    5.003271   -1.799697
     51          1           0        4.922263    6.002842    1.270304
 ---------------------------------------------------------------------

 SCF Done:  E(RB3LYP) =  -1789.99860651     A.U. after    1 cycles

 The electronic state is 1-A.
 Alpha  occ. eigenvalues -- -101.54663 -19.12640 -14.41618 -14.41517 -14.39178
 Alpha  occ. eigenvalues --  -14.38183 -14.35414 -14.34980 -10.30580 -10.25621
 Alpha  occ. eigenvalues --  -10.25313 -10.24107 -10.23937 -10.23641 -10.23184
 Alpha  occ. eigenvalues --  -10.21912 -10.21444 -10.21310 -10.21225 -10.20918
 Alpha  occ. eigenvalues --  -10.20909 -10.20880 -10.20776 -10.20673 -10.20662
 Alpha  occ. eigenvalues --  -10.20409 -10.20099 -10.20015 -10.19997 -10.19911
 Alpha  occ. eigenvalues --  -10.19908 -10.19511  -9.46476  -7.22732  -7.21766
 Alpha  occ. eigenvalues --   -7.21729  -1.09508  -1.05738  -1.05582  -0.96018
 Alpha  occ. eigenvalues --   -0.92450  -0.89609  -0.87203  -0.86407  -0.84430
 Alpha  occ. eigenvalues --   -0.82937  -0.80877  -0.78884  -0.77589  -0.76722
 Alpha  occ. eigenvalues --   -0.76433  -0.75176  -0.74624  -0.73946  -0.70267
 Alpha  occ. eigenvalues --   -0.65774  -0.64854  -0.63456  -0.62390  -0.62135
 Alpha  occ. eigenvalues --   -0.61018  -0.60877  -0.59397  -0.58925  -0.56778
 Alpha  occ. eigenvalues --   -0.55574  -0.54304  -0.52738  -0.52411  -0.52264
 Alpha  occ. eigenvalues --   -0.49838  -0.48803  -0.48408  -0.48269  -0.47200
 Alpha  occ. eigenvalues --   -0.46634  -0.46523  -0.45767  -0.45049  -0.44861
 Alpha  occ. eigenvalues --   -0.44674  -0.44325  -0.43934  -0.43458  -0.43331
 Alpha  occ. eigenvalues --   -0.42475  -0.41903  -0.41126  -0.40784  -0.39958
 Alpha  occ. eigenvalues --   -0.39480  -0.38493  -0.38141  -0.37579  -0.37089
 Alpha  occ. eigenvalues --   -0.36359  -0.36106  -0.35934  -0.35579  -0.33548
 Alpha  occ. eigenvalues --   -0.33231  -0.31577  -0.31527  -0.30703  -0.29824
 Alpha  occ. eigenvalues --   -0.27895  -0.27308  -0.27055  -0.26773  -0.26651
 Alpha  occ. eigenvalues --   -0.26291  -0.25131  -0.25074  -0.23534  -0.22914
 Alpha virt. eigenvalues --   -0.04487  -0.04049  -0.03200  -0.02592  -0.02131
 Alpha virt. eigenvalues --   -0.00493   0.00843   0.01000   0.02601   0.03443
 Alpha virt. eigenvalues --    0.04447   0.05653   0.06415   0.06781   0.07528

 Mulliken atomic charges:
              1
     1  C    0.184965
     2  C    0.010622
     3  C    0.036735
     4  C    0.042292
     5  C    0.041871
     6  C    0.038853
     7  N   -0.248438
     8  N   -0.182110
     9  N   -0.063608
    10  C    0.186196
    11  C    0.140230
    12  N   -0.239030
    13  O   -0.282506
    14  C    0.193987
    15  C   -0.140466
    16  C    0.114293
    17  C    0.121434
    18  C    0.046782
    19  C   -0.088119
    20  C    0.033905
    21  Cl  -0.091588
    22  C    0.002956
    23  C    0.069340
    24  C    0.086998
    25  C    0.004791
    26  C   -0.034610
    27  C    0.114532
    28  C   -0.064245
    29  C    0.093303
    30  C    0.094428
    31  N    0.004796
    32  N   -0.167958
    33  H   -0.015979
    34  H   -0.023088
    35  H   -0.023757
    36  H   -0.026960
    37  H    0.055021
    38  H    0.044028
    39  H    0.045029
    40  H    0.010496
    41  H   -0.020668
    42  H   -0.029099
    43  H   -0.017784
    44  H   -0.018548
    45  H   -0.040228
    46  H   -0.030198
    47  H   -0.027752
    48  H   -0.032366
    49  H    0.000498
    50  H   -0.012468
    51  H    0.103189
 Sum of Mulliken atomic charges =   0.00000

 Dipole moment (field-independent basis, Debye):
    X=              2.1228    Y=             -0.9482    Z=              3.0302  Tot=              3.8193
 Quadrupole moment (field-independent basis, Debye-Ang):
   XX=           -184.4139   YY=           -196.3580   ZZ=           -180.2554
   XY=             18.5395   XZ=             14.0651   YZ=              5.3899

  Exact polarizability: 395.992  44.303 344.616  35.389 -43.333 194.688
 Approx polarizability: 578.391  82.960 543.168  70.272 -99.401 356.440

                     1                      2                      3
                     A                      A                      A
 Frequencies --    10.5814                15.3190                17.9253
 Red. masses --     7.0363                 7.6074                10.9972
 Frc consts  --     0.0005                 0.0011                 0.0021
 IR Inten    --     0.5910                 0.4561                 0.2479

                     4                      5                      6
                     A                      A                      A
 Frequencies --    24.8891                27.7782                32.7992
 Red. masses --     5.4656                 5.2505                 5.1052
 Frc consts  --     0.0020                 0.0024                 0.0032
 IR Inten    --     1.1984                 1.9466                 0.2798

                     7                      8                      9
                     A                      A                      A
 Frequencies --    46.2383                54.6532                65.7264
 Red. masses --     6.3377                 3.7429                 6.1697
 Frc consts  --     0.0080                 0.0066                 0.0157
 IR Inten    --     1.1806                 2.4914                 1.8116

                    10                     11                     12
                     A                      A                      A
 Frequencies --    89.7789               103.5809               108.9273
 Red. masses --     8.0257                 5.8641                 6.7978
 Frc consts  --     0.0381                 0.0371                 0.0475
 IR Inten    --     3.5079                 0.8878                 5.6035

                    13                     14                     15
                     A                      A                      A
 Frequencies --   143.0892               160.6448               167.2126
 Red. masses --     8.3470                 5.8245                 5.8708
 Frc consts  --     0.1007                 0.0886                 0.0967
 IR Inten    --     0.8399                 1.0930                 0.1011

                    16                     17                     18
                     A                      A                      A
 Frequencies --   195.8227               218.7355               229.7808
 Red. masses --     5.2141                 5.4068                 5.8945
 Frc consts  --     0.1178                 0.1524                 0.1834
 IR Inten    --     0.0889                 0.8318                 1.1912

                    19                     20                     21
                     A                      A                      A
 Frequencies --   232.8020               259.0224               291.3286
 Red. masses --     5.7485                 5.0309                 4.4795
 Frc consts  --     0.1836                 0.1989                 0.2240
 IR Inten    --     0.9384                 0.2889                 1.2271

                    22                     23                     24
                     A                      A                      A
 Frequencies --   325.1772               327.7102               378.5969
 Red. masses --     6.6117                 5.1733                 2.8618
 Frc consts  --     0.4119                 0.3273                 0.2417
 IR Inten    --     0.4681                 4.7258                 5.7061

                    25                     26                     27
                     A                      A                      A
 Frequencies --   399.3647               416.0900               421.9313
 Red. masses --     6.2167                 8.9771                 2.9261
 Frc consts  --     0.5842                 0.9157                 0.3069
 IR Inten    --     2.6887                 7.8401                 0.2944

                    28                     29                     30
                     A                      A                      A
 Frequencies --   428.0458               443.4557               444.1088
 Red. masses --     2.3948                 3.0911                 3.1527
 Frc consts  --     0.2585                 0.3582                 0.3664
 IR Inten    --     3.6169                 4.1047                 0.7053

                    31                     32                     33
                     A                      A                      A
 Frequencies --   464.8761               467.3918               481.0967
 Red. masses --     5.2288                 4.1429                 6.1710
 Frc consts  --     0.6658                 0.5332                 0.8415
 IR Inten    --     3.5812                 2.7426                 6.7994

                    34                     35                     36
                     A                      A                      A
 Frequencies --   499.6200               522.3335               532.8621
 Red. masses --     5.1306                 4.6944                 6.2587
 Frc consts  --     0.7546                 0.7546                 1.0470
 IR Inten    --     7.5486                 1.6757                 2.6406

                    37                     38                     39
                     A                      A                      A
 Frequencies --   539.4116               573.1503               583.2422
 Red. masses --     1.7558                 3.0696                 3.8472
 Frc consts  --     0.3010                 0.5941                 0.7711
 IR Inten    --    56.9518                14.5337                 2.8688

                    40                     41                     42
                     A                      A                      A
 Frequencies --   589.0565               626.1481               646.5977
 Red. masses --     4.3637                 5.0842                 5.4646
 Frc consts  --     0.8921                 1.1744                 1.3461
 IR Inten    --    25.8754                 5.3290                 0.3888

                    43                     44                     45
                     A                      A                      A
 Frequencies --   660.0157               665.6646               670.5872
 Red. masses --     4.7442                 2.2907                 7.6863
 Frc consts  --     1.2177                 0.5980                 2.0365
 IR Inten    --     6.7203                 2.7832                 1.3517

                    46                     47                     48
                     A                      A                      A
 Frequencies --   694.7537               695.7671               714.1658
 Red. masses --     5.2278                 2.7656                 5.3391
 Frc consts  --     1.4867                 0.7888                 1.6044
 IR Inten    --    14.7093                32.9215                 6.2777

                    49                     50                     51
                     A                      A                      A
 Frequencies --   729.0770               759.0554               766.3989
 Red. masses --     3.1011                 3.5222                 1.4352
 Frc consts  --     0.9712                 1.1957                 0.4967
 IR Inten    --    13.6501                20.6398                44.1782

                    52                     53                     54
                     A                      A                      A
 Frequencies --   771.2992               790.3343               795.1610
 Red. masses --     3.0098                 3.2689                 4.9541
 Frc consts  --     1.0550                 1.2030                 1.8455
 IR Inten    --    30.0899                 7.4946                23.2191

                    55                     56                     57
                     A                      A                      A
 Frequencies --   801.6409               817.6759               838.2836
 Red. masses --     1.4968                 1.6134                 6.2412
 Frc consts  --     0.5667                 0.6356                 2.5840
 IR Inten    --     2.7576                13.8169                 2.6353

                    58                     59                     60
                     A                      A                      A
 Frequencies --   845.9734               862.4698               873.5513
 Red. masses --     1.2580                 1.8071                 2.7373
 Frc consts  --     0.5304                 0.7920                 1.2307
 IR Inten    --     0.7593                 9.5934                37.2537

                    61                     62                     63
                     A                      A                      A
 Frequencies --   876.9619               885.5545               896.9901
 Red. masses --     1.5128                 1.6696                 2.1821
 Frc consts  --     0.6855                 0.7714                 1.0344
 IR Inten    --     2.3777                 2.6979                19.0084

                    64                     65                     66
                     A                      A                      A
 Frequencies --   915.1338               920.2343               943.8215
 Red. masses --     2.1055                 2.8742                 1.4771
 Frc consts  --     1.0389                 1.4341                 0.7752
 IR Inten    --    12.2421                 2.7450                 4.8001

                    67                     68                     69
                     A                      A                      A
 Frequencies --   946.6138               951.1256               960.0595
 Red. masses --     5.3853                 3.2590                 6.0296
 Frc consts  --     2.8432                 1.7370                 3.2744
 IR Inten    --    27.2963                46.2171                31.0456

                    70                     71                     72
                     A                      A                      A
 Frequencies --   966.0770               975.6918               982.7669
 Red. masses --     1.3604                 1.3893                 1.3675
 Frc consts  --     0.7480                 0.7793                 0.7782
 IR Inten    --     2.0771                 0.4639                 0.0439

                    73                     74                     75
                     A                      A                      A
 Frequencies --  1001.0669              1010.5482              1012.4002
 Red. masses --     1.2922                 2.1503                 2.2355
 Frc consts  --     0.7630                 1.2938                 1.3500
 IR Inten    --     0.7521                 3.9053                 1.7805

                    76                     77                     78
                     A                      A                      A
 Frequencies --  1022.5865              1024.5618              1040.6357
 Red. masses --     3.4033                 1.9774                 2.6965
 Frc consts  --     2.0968                 1.2230                 1.7205
 IR Inten    --    17.4103                11.5734                12.0454

                    79                     80                     81
                     A                      A                      A
 Frequencies --  1043.6637              1048.5952              1099.9527
 Red. masses --     3.0169                 1.7123                 1.9371
 Frc consts  --     1.9361                 1.1093                 1.3809
 IR Inten    --    34.5186                36.7304                20.3536

                    82                     83                     84
                     A                      A                      A
 Frequencies --  1103.0503              1113.8922              1114.2790
 Red. masses --     2.8600                 2.0759                 1.6420
 Frc consts  --     2.0503                 1.5175                 1.2012
 IR Inten    --    27.5685                 5.7951                 5.4202

                    85                     86                     87
                     A                      A                      A
 Frequencies --  1121.5179              1131.1991              1142.0378
 Red. masses --     2.9023                 1.5230                 1.3756
 Frc consts  --     2.1508                 1.1483                 1.0571
 IR Inten    --     2.4660                12.8560                 1.7793

                    88                     89                     90
                     A                      A                      A
 Frequencies --  1170.2066              1175.3863              1181.6009
 Red. masses --     2.0171                 1.4069                 1.1134
 Frc consts  --     1.6274                 1.1452                 0.9159
 IR Inten    --    10.4566                 8.2531                 1.5025

                    91                     92                     93
                     A                      A                      A
 Frequencies --  1194.4958              1224.2654              1236.1277
 Red. masses --     1.1235                 2.5640                 1.5761
 Frc consts  --     0.9445                 2.2642                 1.4189
 IR Inten    --     1.4986                12.0575                55.3767

                    94                     95                     96
                     A                      A                      A
 Frequencies --  1236.6037              1262.5352              1282.4423
 Red. masses --     1.6086                 2.1156                 3.9076
 Frc consts  --     1.4493                 1.9869                 3.7865
 IR Inten    --     3.7437                90.6616                52.6807

                    97                     98                     99
                     A                      A                      A
 Frequencies --  1301.9163              1303.8987              1309.1765
 Red. masses --     1.6925                 2.0010                 1.5543
 Frc consts  --     1.6903                 2.0045                 1.5695
 IR Inten    --    29.7065                 8.8682                56.7333

                   100                    101                    102
                     A                      A                      A
 Frequencies --  1319.1896              1324.1326              1347.2218
 Red. masses --     2.0864                 1.6314                 2.8299
 Frc consts  --     2.1392                 1.6853                 3.0262
 IR Inten    --     9.0755                31.3516                 5.6332

                   103                    104                    105
                     A                      A                      A
 Frequencies --  1349.1082              1356.8840              1372.0581
 Red. masses --     2.7125                 3.3182                 2.5433
 Frc consts  --     2.9088                 3.5994                 2.8210
 IR Inten    --     6.1897                12.8871                16.8490

                   106                    107                    108
                     A                      A                      A
 Frequencies --  1380.4142              1387.5391              1415.8195
 Red. masses --     1.7883                 3.1732                 3.2336
 Frc consts  --     2.0078                 3.5995                 3.8191
 IR Inten    --    10.1281                19.1433                 1.0666

                   109                    110                    111
                     A                      A                      A
 Frequencies --  1419.4173              1430.7251              1435.1393
 Red. masses --     4.0550                 7.2305                 2.3499
 Frc consts  --     4.8135                 8.7202                 2.8516
 IR Inten    --    17.4703                 2.7395               154.6175

                   112                    113                    114
                     A                      A                      A
 Frequencies --  1446.5098              1447.1925              1451.3411
 Red. masses --     1.2092                 1.4553                 3.1130
 Frc consts  --     1.4907                 1.7958                 3.8634
 IR Inten    --    38.6592                36.2663                 5.1981

                   115                    116                    117
                     A                      A                      A
 Frequencies --  1463.5053              1485.9618              1496.4407
 Red. masses --     2.4571                 3.2331                 2.5207
 Frc consts  --     3.1007                 4.2061                 3.3258
 IR Inten    --     7.7002                27.5935                 6.0164

                   118                    119                    120
                     A                      A                      A
 Frequencies --  1504.7999              1526.1199              1541.7066
 Red. masses --     2.5056                 3.5649                 2.8255
 Frc consts  --     3.3429                 4.8919                 3.9569
 IR Inten    --    29.2261                11.5173                58.3998

                   121                    122                    123
                     A                      A                      A
 Frequencies --  1606.1678              1617.0338              1622.0837
 Red. masses --     6.0210                 5.6134                 6.3606
 Frc consts  --     9.1516                 8.6480                 9.8605
 IR Inten    --    31.8231                41.1357                30.4761

                   124                    125                    126
                     A                      A                      A
 Frequencies --  1634.5820              1646.2751              1659.9647
 Red. masses --     7.4224                 6.4035                 6.3101
 Frc consts  --    11.6845                10.2252                10.2444
 IR Inten    --     3.4608                20.1687                 6.6735

                   127                    128                    129
                     A                      A                      A
 Frequencies --  1665.3550              1725.1518              3071.8136
 Red. masses --     7.3221                10.3346                 1.0603
 Frc consts  --    11.9646                18.1217                 5.8947
 IR Inten    --    14.5160               343.4419                17.6410

                   130                    131                    132
                     A                      A                      A
 Frequencies --  3072.4890              3132.6034              3165.6669
 Red. masses --     1.0659                 1.1061                 1.1000
 Frc consts  --     5.9284                 6.3953                 6.4951
 IR Inten    --    11.1816                 3.9159                 1.6040

                   133                    134                    135
                     A                      A                      A
 Frequencies --  3179.6879              3183.8615              3184.7368
 Red. masses --     1.0863                 1.0877                 1.0880
 Frc consts  --     6.4712                 6.4965                 6.5016
 IR Inten    --     4.2208                 8.1674                10.7837

                   136                    137                    138
                     A                      A                      A
 Frequencies --  3194.2409              3194.2544              3199.3275
 Red. masses --     1.0907                 1.0885                 1.0919
 Frc consts  --     6.5567                 6.5439                 6.5847
 IR Inten    --    19.8037                 2.1195                 2.0476

                   139                    140                    141
                     A                      A                      A
 Frequencies --  3205.5265              3206.8140              3210.4212
 Red. masses --     1.0951                 1.0933                 1.0962
 Frc consts  --     6.6298                 6.6242                 6.6566
 IR Inten    --     5.8619                 1.0869                12.8181

                   142                    143                    144
                     A                      A                      A
 Frequencies --  3211.5914              3214.7326              3229.5778
 Red. masses --     1.0956                 1.0957                 1.0946
 Frc consts  --     6.6580                 6.6716                 6.7269
 IR Inten    --     2.2172                 4.6754                 2.0712

                   145                    146                    147
                     A                      A                      A
 Frequencies --  3243.8541              3264.6964              3642.9916
 Red. masses --     1.0964                 1.0983                 1.0826
 Frc consts  --     6.7974                 6.8970                 8.4651
 IR Inten    --     1.2542                 0.0143               141.5624

 - Thermochemistry -
 -------------------
 Temperature   298.150 Kelvin.  Pressure   1.00000 Atm.
 Atom     1 has atomic number  6 and mass  12.00000

 Molecular mass:   442.13089 amu.
 Principal axes and moments of inertia in atomic units:
                           1         2         3
     Eigenvalues --  ******************************
           X            0.99949   0.03154   0.00421
           Y           -0.03152   0.99950  -0.00366
           Z           -0.00433   0.00352   0.99998
 This molecule is an asymmetric top.
 Rotational symmetry number  1.
 Warning -- assumption of classical behavior for rotation
           may cause significant error
 Rotational temperatures (Kelvin)      0.00596     0.00407     0.00253
 Rotational constants (GHZ):           0.12425     0.08476     0.05266
 Zero-point vibrational energy    1032228.8 (Joules/Mol)
                                  246.70860 (Kcal/Mol)
 Warning -- explicit consideration of  40 degrees of freedom as
           vibrations may cause significant error
 Vibrational temperatures:     15.22    22.04    25.79    35.81    39.97
          (Kelvin)             47.19    66.53    78.63    94.57   129.17
                              149.03   156.72   205.87   231.13   240.58
                              281.74   314.71   330.60   334.95   372.67
                              419.16   467.86   471.50   544.72   574.60
                              598.66   607.06   615.86   638.03   638.97
                              668.85   672.47   692.19   718.84   751.52
                              766.67   776.09   824.63   839.15   847.52
                              900.89   930.31   949.61   957.74   964.82
                              999.59  1001.05  1027.52  1048.98  1092.11
                             1102.68  1109.73  1137.11  1144.06  1153.38
                             1176.45  1206.10  1217.17  1240.90  1256.84
                             1261.75  1274.11  1290.57  1316.67  1324.01
                             1357.95  1361.96  1368.46  1381.31  1389.97
                             1403.80  1413.98  1440.31  1453.95  1456.62
                             1471.27  1474.11  1497.24  1501.60  1508.69
                             1582.58  1587.04  1602.64  1603.20  1613.61
                             1627.54  1643.14  1683.66  1691.12  1700.06
                             1718.61  1761.44  1778.51  1779.19  1816.50
                             1845.15  1873.16  1876.02  1883.61  1898.02
                             1905.13  1938.35  1941.06  1952.25  1974.08
                             1986.11  1996.36  2037.05  2042.22  2058.49
                             2064.84  2081.20  2082.18  2088.15  2105.66
                             2137.96  2153.04  2165.07  2195.74  2218.17
                             2310.91  2326.55  2333.81  2351.80  2368.62
                             2388.32  2396.07  2482.11  4419.65  4420.62
                             4507.11  4554.68  4574.86  4580.86  4582.12
                             4595.79  4595.81  4603.11  4612.03  4613.88
                             4619.07  4620.76  4625.28  4646.64  4667.18
                             4697.16  5241.45

 Zero-point correction=                           0.393155 (Hartree/Particle)
 Thermal correction to Energy=                    0.419142
 Thermal correction to Enthalpy=                  0.420087
 Thermal correction to Gibbs Free Energy=         0.330743
 Sum of electronic and zero-point Energies=          -1789.605451
 Sum of electronic and thermal Energies=             -1789.579464
 Sum of electronic and thermal Enthalpies=           -1789.578520
 Sum of electronic and thermal Free Energies=        -1789.667863

                     E (Thermal)             CV                S
                      KCal/Mol        Cal/Mol-Kelvin    Cal/Mol-Kelvin
 Total                  263.016            100.806            188.039
 Electronic               0.000              0.000              0.000
 Translational            0.889              2.981             44.149
 Rotational               0.889              2.981             37.603
 Vibrational            261.238             94.844            106.287
 Vibration     1          0.593              1.987              7.899
 Vibration     2          0.593              1.986              7.164
 Vibration     3          0.593              1.986              6.852
 Vibration     4          0.593              1.985              6.200
 Vibration     5          0.593              1.984              5.982
 Vibration     6          0.594              1.983              5.652
 Vibration     7          0.595              1.979              4.972
 Vibration     8          0.596              1.976              4.641
 Vibration     9          0.597              1.971              4.277
 Vibration    10          0.602              1.956              3.665
 Vibration    11          0.605              1.946              3.386
 Vibration    12          0.606              1.942              3.288
 Vibration    13          0.616              1.910              2.762
 Vibration    14          0.622              1.891              2.542
 Vibration    15          0.624              1.883              2.467
 Vibration    16          0.636              1.846              2.172
 Vibration    17          0.647              1.813              1.970
 Vibration    18          0.652              1.796              1.881
 Vibration    19          0.654              1.791              1.857
 Vibration    20          0.668              1.747              1.668
 Vibration    21          0.687              1.690              1.466
 Vibration    22          0.709              1.625              1.284
 Vibration    23          0.711              1.620              1.271
 Vibration    24          0.749              1.516              1.045
 Vibration    25          0.765              1.471              0.965
 Vibration    26          0.779              1.435              0.905
 Vibration    27          0.784              1.423              0.885
 Vibration    28          0.790              1.409              0.865
 Vibration    29          0.803              1.375              0.816
 Vibration    30          0.804              1.374              0.814
 Vibration    31          0.822              1.328              0.752
 Vibration    32          0.825              1.322              0.745
 Vibration    33          0.837              1.292              0.707
 Vibration    34          0.855              1.251              0.659
 Vibration    35          0.877              1.201              0.605
 Vibration    36          0.888              1.177              0.581
 Vibration    37          0.894              1.163              0.567
 Vibration    38          0.929              1.089              0.498
 Vibration    39          0.940              1.068              0.479
 Vibration    40          0.946              1.055              0.469

 Normal termination of Gaussian 09 at Thu Sep  8 09:36:17 2022.
