 Gaussian 09, Revision C.01,
 Gaussian 09:  EM64L-G09RevC.01 23-Sep-2011

 -------------------------
 #p opt freq b3lyp/cc-pvdz
 -------------------------

 (Enter /opt/gaussian/l101.exe)
 ---------
 Mol40.log
 ---------
 Charge =  0 Multiplicity = 1

 SCF Done:  E(RB3LYP) =  -1806.02810510     A.U. after   15 cycles
 SCF Done:  E(RB3LYP) =  -1806.03882567     A.U. after   13 cycles
 SCF Done:  E(RB3LYP) =  -1806.03932734     A.U. after   13 cycles
 SCF Done:  E(RB3LYP) =  -1806.03942959     A.U. after   12 cycles
 SCF Done:  E(RB3LYP) =  -1806.03949867     A.U. after   12 cycles
 SCF Done:  E(RB3LYP) =  -1806.03955657     A.U. after   11 cycles
 SCF Done:  E(RB3LYP) =  -1806.03957936     A.U. after   11 cycles
 SCF Done:  E(RB3LYP) =  -1806.03959532     A.U. after   10 cycles
 SCF Done:  E(RB3LYP) =  -1806.03959763     A.U. after   10 cycles
 SCF Done:  E(RB3LYP) =  -1806.03959995     A.U. after   10 cycles
 SCF Done:  E(RB3LYP) =  -1806.03960075     A.U. after   10 cycles
 SCF Done:  E(RB3LYP) =  -1806.03960109     A.U. after   10 cycles
 SCF Done:  E(RB3LYP) =  -1806.03960123     A.U. after    8 cycles
 SCF Done:  E(RB3LYP) =  -1806.03960124     A.U. after    8 cycles
 SCF Done:  E(RB3LYP) =  -1806.03960135     A.U. after    8 cycles
 SCF Done:  E(RB3LYP) =  -1806.03960142     A.U. after    8 cycles
 SCF Done:  E(RB3LYP) =  -1806.03960152     A.U. after    7 cycles
 SCF Done:  E(RB3LYP) =  -1806.03960156     A.U. after    6 cycles
 Optimization completed.
    -- Stationary point found.
 Normal termination of Gaussian 09 at Fri Sep  9 17:49:01 2022.

 -------------------------------------------------------------------
 #P Geom=AllCheck Guess=TCheck SCRF=Check GenChk RB3LYP/CC-pVDZ Freq
 -------------------------------------------------------------------

 Structure from the checkpoint file:  /home/scr/lqcapf-6/Gau-445047.chk
 ---------
 Mol40.log
 ---------
 Charge =  0 Multiplicity = 1

                         Standard orientation:
 ---------------------------------------------------------------------
 Center     Atomic      Atomic             Coordinates (Angstroms)
 Number     Number       Type             X           Y           Z
 ---------------------------------------------------------------------
      1         17           0       -3.377239    5.241618   -0.283383
      2          6           0       -2.119712    4.121975    0.227601
      3          6           0       -1.689651    4.129483    1.554838
      4          6           0       -0.692072    3.228533    1.938250
      5          6           0       -0.134961    2.339565    1.016281
      6          6           0       -0.576084    2.335089   -0.315354
      7          6           0       -1.578192    3.235146   -0.705267
      8          6           0        0.041293    1.418382   -1.358824
      9          7           0        0.363434    0.053338   -0.896580
     10          6           0       -0.642771   -0.887824   -0.705601
     11          8           0       -0.458252   -2.002746   -0.251374
     12          6           0       -2.064420   -0.445755   -1.109791
     13          7           0       -3.019932   -1.510592   -0.949643
     14          7           0       -3.503032   -2.149137   -2.059781
     15          7           0       -4.334661   -3.065024   -1.701048
     16          6           0       -4.421423   -3.060267   -0.321754
     17          6           0       -5.189432   -3.849901    0.552049
     18          6           0       -5.069456   -3.599905    1.911952
     19          6           0       -4.203596   -2.589398    2.402860
     20          6           0       -3.434979   -1.802096    1.554681
     21          6           0       -3.564085   -2.057615    0.179680
     22          6           0        1.736391   -0.237193   -0.611042
     23          6           0        2.257199   -1.544310   -0.545767
     24          6           0        3.617064   -1.694506   -0.304385
     25          6           0        4.450189   -0.576367   -0.116093
     26          6           0        3.815197    0.671900   -0.201181
     27          7           0        2.511469    0.839007   -0.441253
     28          6           0        5.887686   -0.691777    0.151833
     29          6           0        6.574310   -1.774182    0.696800
     30          7           0        7.881181   -1.411885    0.752694
     31          7           0        8.115800   -0.172135    0.282905
     32          6           0        6.914456    0.270262   -0.080030
     33          1           0       -2.129136    4.825425    2.269712
     34          1           0       -0.342253    3.226411    2.972957
     35          1           0        0.656021    1.656352    1.325131
     36          1           0       -1.942141    3.251357   -1.734499
     37          1           0       -0.616192    1.356183   -2.237228
     38          1           0        0.991121    1.854754   -1.689328
     39          1           0       -2.375713    0.433125   -0.524522
     40          1           0       -2.094830   -0.170223   -2.173326
     41          1           0       -5.850223   -4.624702    0.160504
     42          1           0       -5.648417   -4.191107    2.624360
     43          1           0       -4.136251   -2.430305    3.481424
     44          1           0       -2.759191   -1.038518    1.941463
     45          1           0        1.613546   -2.406866   -0.679713
     46          1           0        4.039277   -2.701810   -0.281156
     47          1           0        4.386468    1.593195   -0.051915
     48          1           0        6.232110   -2.739794    1.059031
     49          1           0        6.821727    1.262061   -0.518116
     50          1           0        8.655635   -1.961505    1.102248
 ---------------------------------------------------------------------

 SCF Done:  E(RB3LYP) =  -1806.03960156     A.U. after    1 cycles

 The electronic state is 1-A.
 Alpha  occ. eigenvalues -- -101.55083 -19.13463 -14.41885 -14.41113 -14.39436
 Alpha  occ. eigenvalues --  -14.38939 -14.35717 -14.34727 -14.34320 -10.31451
 Alpha  occ. eigenvalues --  -10.27803 -10.26193 -10.25860 -10.24963 -10.23900
 Alpha  occ. eigenvalues --  -10.23650 -10.23130 -10.22344 -10.21870 -10.21725
 Alpha  occ. eigenvalues --  -10.21630 -10.21564 -10.21390 -10.21336 -10.21051
 Alpha  occ. eigenvalues --  -10.20735 -10.20640 -10.20517 -10.20384 -10.20031
 Alpha  occ. eigenvalues --  -10.19851 -10.19441  -9.46898  -7.23157  -7.22186
 Alpha  occ. eigenvalues --   -7.22148  -1.09418  -1.06617  -1.06026  -0.99114
 Alpha  occ. eigenvalues --   -0.93810  -0.92465  -0.90151  -0.86400  -0.85015
 Alpha  occ. eigenvalues --   -0.83868  -0.83052  -0.80242  -0.78866  -0.78194
 Alpha  occ. eigenvalues --   -0.77194  -0.76033  -0.74953  -0.74172  -0.71549
 Alpha  occ. eigenvalues --   -0.67825  -0.64986  -0.64865  -0.62699  -0.62509
 Alpha  occ. eigenvalues --   -0.61952  -0.61505  -0.60171  -0.59206  -0.57360
 Alpha  occ. eigenvalues --   -0.56133  -0.53632  -0.53200  -0.52704  -0.52499
 Alpha  occ. eigenvalues --   -0.51872  -0.49871  -0.49354  -0.48289  -0.47730
 Alpha  occ. eigenvalues --   -0.46855  -0.46642  -0.46082  -0.45888  -0.45392
 Alpha  occ. eigenvalues --   -0.45078  -0.44688  -0.44489  -0.44083  -0.43534
 Alpha  occ. eigenvalues --   -0.43250  -0.42620  -0.42267  -0.41368  -0.40651
 Alpha  occ. eigenvalues --   -0.40078  -0.39425  -0.39222  -0.37697  -0.37511
 Alpha  occ. eigenvalues --   -0.37014  -0.36663  -0.35563  -0.34004  -0.33321
 Alpha  occ. eigenvalues --   -0.32988  -0.31951  -0.31188  -0.30252  -0.29974
 Alpha  occ. eigenvalues --   -0.28443  -0.27875  -0.27685  -0.27037  -0.26939
 Alpha  occ. eigenvalues --   -0.26533  -0.25694  -0.24920  -0.23500  -0.22612
 Alpha virt. eigenvalues --   -0.04790  -0.04178  -0.03764  -0.03086  -0.02974
 Alpha virt. eigenvalues --    0.00026   0.00723   0.01060   0.02137   0.03576
 Alpha virt. eigenvalues --    0.04242   0.04505   0.06187   0.06368   0.06743

 Mulliken atomic charges:
              1
     1  Cl  -0.083989
     2  C   -0.138379
     3  C    0.115577
     4  C    0.048762
     5  C    0.045885
     6  C   -0.103910
     7  C    0.116296
     8  C    0.188143
     9  N   -0.275553
    10  C    0.155474
    11  O   -0.241740
    12  C    0.124213
    13  N   -0.227727
    14  N   -0.060202
    15  N   -0.182033
    16  C    0.011308
    17  C    0.044656
    18  C    0.037450
    19  C    0.039802
    20  C    0.027717
    21  C    0.213085
    22  C    0.195101
    23  C    0.042961
    24  C    0.064969
    25  C   -0.015959
    26  C    0.083196
    27  N   -0.229577
    28  C   -0.064518
    29  C    0.090709
    30  N    0.004424
    31  N   -0.168033
    32  C    0.089391
    33  H   -0.018144
    34  H   -0.016500
    35  H   -0.027062
    36  H   -0.031851
    37  H    0.015108
    38  H    0.060020
    39  H    0.066853
    40  H    0.062008
    41  H   -0.022138
    42  H   -0.027226
    43  H   -0.025359
    44  H   -0.028194
    45  H    0.000591
    46  H   -0.033762
    47  H   -0.012508
    48  H    0.001118
    49  H   -0.014123
    50  H    0.103671
 Sum of Mulliken atomic charges =   0.00000

 Dipole moment (field-independent basis, Debye):
    X=              4.2794    Y=              0.2186    Z=              3.3198  Tot=              5.4205
 Quadrupole moment (field-independent basis, Debye-Ang):
   XX=           -188.2032   YY=           -193.5081   ZZ=           -184.9578
   XY=            -23.6963   XZ=             -4.7645   YZ=            -10.8332

  Exact polarizability: 402.548  -6.516 299.552  15.532  -9.847 238.841
 Approx polarizability: 539.234   6.413 487.798  38.436 -20.279 444.808

                     1                      2                      3
                     A                      A                      A
 Frequencies --    11.0681                15.2125                16.9109
 Red. masses --     6.2419                 9.9870                 6.7317
 Frc consts  --     0.0005                 0.0014                 0.0011
 IR Inten    --     1.0597                 0.2882                 0.9037

                     4                      5                      6
                     A                      A                      A
 Frequencies --    21.3116                26.5725                32.9530
 Red. masses --     4.7926                 6.2787                 5.2325
 Frc consts  --     0.0013                 0.0026                 0.0033
 IR Inten    --     2.5108                 0.4671                 1.8087

                     7                      8                      9
                     A                      A                      A
 Frequencies --    47.3191                51.9306                66.0494
 Red. masses --     5.8002                 4.5417                 6.4968
 Frc consts  --     0.0077                 0.0072                 0.0167
 IR Inten    --     1.0003                 0.3044                 2.2907

                    10                     11                     12
                     A                      A                      A
 Frequencies --    78.1030                96.3550               137.5720
 Red. masses --     7.2913                 6.8836                 6.5103
 Frc consts  --     0.0262                 0.0377                 0.0726
 IR Inten    --     3.0404                 0.8735                 0.1441

                    13                     14                     15
                     A                      A                      A
 Frequencies --   152.7385               163.6865               178.1994
 Red. masses --     7.0740                 6.6076                 6.3959
 Frc consts  --     0.0972                 0.1043                 0.1197
 IR Inten    --     1.1622                 1.2253                 0.4013

                    16                     17                     18
                     A                      A                      A
 Frequencies --   193.1141               224.8350               228.5781
 Red. masses --     5.1165                 5.8372                 4.9248
 Frc consts  --     0.1124                 0.1739                 0.1516
 IR Inten    --     0.0255                 0.4606                 2.1184

                    19                     20                     21
                     A                      A                      A
 Frequencies --   237.7688               257.4581               280.1828
 Red. masses --     5.2655                 3.4080                 5.9060
 Frc consts  --     0.1754                 0.1331                 0.2732
 IR Inten    --     2.0036                 2.8991                 1.5882

                    22                     23                     24
                     A                      A                      A
 Frequencies --   313.6014               345.2919               361.2521
 Red. masses --     4.0559                 6.6304                 5.9764
 Frc consts  --     0.2350                 0.4658                 0.4595
 IR Inten    --     2.6954                 0.9382                 0.3642

                    25                     26                     27
                     A                      A                      A
 Frequencies --   398.1972               402.5275               424.1851
 Red. masses --     6.5131                 4.5900                 7.8803
 Frc consts  --     0.6085                 0.4382                 0.8354
 IR Inten    --    13.0132                15.1188                 3.2461

                    28                     29                     30
                     A                      A                      A
 Frequencies --   438.1988               439.9002               442.7000
 Red. masses --     2.6507                 2.8878                 4.6562
 Frc consts  --     0.2999                 0.3292                 0.5376
 IR Inten    --     3.2057                 1.7912                 1.7736

                    31                     32                     33
                     A                      A                      A
 Frequencies --   444.6644               459.2811               475.0371
 Red. masses --     3.4413                 4.0746                 4.1460
 Frc consts  --     0.4009                 0.5064                 0.5512
 IR Inten    --     0.0410                 1.3928                 1.4655

                    34                     35                     36
                     A                      A                      A
 Frequencies --   521.3287               534.7843               539.6331
 Red. masses --     4.2105                 3.3283                 2.2216
 Frc consts  --     0.6742                 0.5608                 0.3812
 IR Inten    --     1.2104                15.6741                34.9525

                    37                     38                     39
                     A                      A                      A
 Frequencies --   553.3358               578.9666               585.1857
 Red. masses --     3.1013                 3.9837                 4.0170
 Frc consts  --     0.5595                 0.7868                 0.8105
 IR Inten    --     0.1520                 0.6226                 1.1422

                    40                     41                     42
                     A                      A                      A
 Frequencies --   601.1461               611.5320               652.6867
 Red. masses --     5.2466                 5.3528                 5.8721
 Frc consts  --     1.1171                 1.1794                 1.4739
 IR Inten    --     1.7978                19.8688                 3.5285

                    43                     44                     45
                     A                      A                      A
 Frequencies --   666.3883               667.0900               673.8900
 Red. masses --     3.5440                 3.6873                 5.6048
 Frc consts  --     0.9273                 0.9668                 1.4996
 IR Inten    --     0.6188                 3.6894                 3.1531

                    46                     47                     48
                     A                      A                      A
 Frequencies --   686.9893               696.6916               698.8097
 Red. masses --     4.6643                 3.2516                 3.3808
 Frc consts  --     1.2970                 0.9299                 0.9727
 IR Inten    --     8.8739                20.0561                32.7703

                    49                     50                     51
                     A                      A                      A
 Frequencies --   726.3810               760.8632               776.9938
 Red. masses --     3.2103                 1.3877                 3.8724
 Frc consts  --     0.9980                 0.4733                 1.3774
 IR Inten    --    30.1196                44.0655                 0.9736

                    52                     53                     54
                     A                      A                      A
 Frequencies --   780.0549               787.0995               793.7471
 Red. masses --     3.9201                 3.4053                 2.8170
 Frc consts  --     1.4054                 1.2430                 1.0457
 IR Inten    --     5.9379                 2.5033                 4.1615

                    55                     56                     57
                     A                      A                      A
 Frequencies --   800.0344               800.3768               832.1824
 Red. masses --     2.2196                 1.6306                 5.8899
 Frc consts  --     0.8370                 0.6154                 2.4032
 IR Inten    --    20.1453                12.8010                44.0355

                    58                     59                     60
                     A                      A                      A
 Frequencies --   862.8531               863.7524               866.0565
 Red. masses --     1.5410                 2.6643                 1.5740
 Frc consts  --     0.6760                 1.1711                 0.6956
 IR Inten    --    25.9794                52.6302                 2.3051

                    61                     62                     63
                     A                      A                      A
 Frequencies --   874.3113               881.1501               905.1370
 Red. masses --     3.0243                 1.4927                 1.7732
 Frc consts  --     1.3621                 0.6828                 0.8559
 IR Inten    --     6.8712                 3.9118                 3.3125

                    64                     65                     66
                     A                      A                      A
 Frequencies --   918.1992               921.9678               946.5989
 Red. masses --     1.7182                 2.9068                 3.7758
 Frc consts  --     0.8535                 1.4558                 1.9934
 IR Inten    --     3.2734                 3.6585                26.2283

                    67                     68                     69
                     A                      A                      A
 Frequencies --   948.4680               959.2851               959.8670
 Red. masses --     1.6678                 1.4289                 6.1520
 Frc consts  --     0.8840                 0.7747                 3.3396
 IR Inten    --     3.0972                 9.4248                41.8101

                    70                     71                     72
                     A                      A                      A
 Frequencies --   960.7581               994.7766               997.1417
 Red. masses --     3.4216                 1.9647                 1.3403
 Frc consts  --     1.8608                 1.1455                 0.7852
 IR Inten    --    56.8474                29.9881                 1.4784

                    73                     74                     75
                     A                      A                      A
 Frequencies --   997.7560               998.7694              1012.9978
 Red. masses --     1.2905                 1.6601                 5.0220
 Frc consts  --     0.7569                 0.9757                 3.0363
 IR Inten    --     0.0197                22.4262                 3.6235

                    76                     77                     78
                     A                      A                      A
 Frequencies --  1024.7383              1032.3504              1052.0826
 Red. masses --     2.0050                 2.8708                 1.7360
 Frc consts  --     1.2405                 1.8026                 1.1322
 IR Inten    --    10.1000                27.7918                21.6359

                    79                     80                     81
                     A                      A                      A
 Frequencies --  1096.1382              1100.5572              1112.8449
 Red. masses --     3.2346                 1.8869                 1.6942
 Frc consts  --     2.2899                 1.3466                 1.2362
 IR Inten    --    78.2981                15.8337                 7.7834

                    82                     83                     84
                     A                      A                      A
 Frequencies --  1119.3932              1128.3047              1136.0807
 Red. masses --     2.8660                 2.0905                 3.2052
 Frc consts  --     2.1159                 1.5680                 2.4374
 IR Inten    --    22.1669                 5.8263                 2.9211

                    85                     86                     87
                     A                      A                      A
 Frequencies --  1146.6933              1158.8645              1171.7249
 Red. masses --     1.4352                 1.3909                 1.9862
 Frc consts  --     1.1118                 1.1005                 1.6066
 IR Inten    --     2.2232                 1.1764                11.9219

                    88                     89                     90
                     A                      A                      A
 Frequencies --  1178.1238              1182.4811              1216.1334
 Red. masses --     1.5843                 1.1082                 2.3310
 Frc consts  --     1.2956                 0.9130                 2.0312
 IR Inten    --     8.5920                 1.6173                30.2714

                    91                     92                     93
                     A                      A                      A
 Frequencies --  1222.8681              1238.8524              1259.5580
 Red. masses --     2.0907                 1.6315                 2.7185
 Frc consts  --     1.8420                 1.4753                 2.5411
 IR Inten    --   289.3530                16.9476               129.2044

                    94                     95                     96
                     A                      A                      A
 Frequencies --  1269.5357              1295.4127              1297.2830
 Red. masses --     2.6335                 1.7023                 1.6366
 Frc consts  --     2.5007                 1.6831                 1.6228
 IR Inten    --     9.8240                 1.5003                23.6151

                    97                     98                     99
                     A                      A                      A
 Frequencies --  1309.4083              1318.8802              1325.6792
 Red. masses --     2.6541                 1.7034                 1.7465
 Frc consts  --     2.6812                 1.7457                 1.8084
 IR Inten    --    13.6130                66.7801                51.7019

                   100                    101                    102
                     A                      A                      A
 Frequencies --  1339.7515              1342.8986              1353.0568
 Red. masses --     3.2222                 1.9439                 2.4628
 Frc consts  --     3.4076                 2.0655                 2.6565
 IR Inten    --     3.7154                45.9444                11.7857

                   103                    104                    105
                     A                      A                      A
 Frequencies --  1371.6507              1378.6779              1380.6194
 Red. masses --     2.4714                 2.5052                 3.0402
 Frc consts  --     2.7396                 2.8056                 3.4142
 IR Inten    --    20.7404                20.9436                 7.8285

                   106                    107                    108
                     A                      A                      A
 Frequencies --  1409.2538              1414.0126              1428.5923
 Red. masses --     3.0924                 1.9228                 3.0570
 Frc consts  --     3.6184                 2.2651                 3.6758
 IR Inten    --   334.2900                32.8881                 9.6179

                   109                    110                    111
                     A                      A                      A
 Frequencies --  1433.6684              1439.2646              1444.7299
 Red. masses --     1.9796                 3.1855                 3.1786
 Frc consts  --     2.3973                 3.8878                 3.9089
 IR Inten    --    36.1306                37.3682                38.3340

                   112                    113                    114
                     A                      A                      A
 Frequencies --  1447.3674              1455.2726              1489.8731
 Red. masses --     1.2474                 2.6576                 3.5313
 Frc consts  --     1.5397                 3.3161                 4.6183
 IR Inten    --     9.6252                30.7066                28.3230

                   115                    116                    117
                     A                      A                      A
 Frequencies --  1491.7196              1506.6239              1516.8352
 Red. masses --     2.4855                 2.4849                 2.7792
 Frc consts  --     3.2587                 3.3234                 3.7674
 IR Inten    --    15.0950                39.5701               160.1374

                   118                    119                    120
                     A                      A                      A
 Frequencies --  1529.8744              1603.0423              1611.2226
 Red. masses --     3.8150                 6.7927                 5.3902
 Frc consts  --     5.2609                10.2845                 8.2446
 IR Inten    --    19.9452                67.3771                62.7316

                   121                    122                    123
                     A                      A                      A
 Frequencies --  1622.8915              1635.8116              1646.4409
 Red. masses --     6.3161                 7.3756                 6.4550
 Frc consts  --     9.8012                11.6282                10.3095
 IR Inten    --    25.9617                 2.3228                32.3463

                   124                    125                    126
                     A                      A                      A
 Frequencies --  1656.0286              1669.1710              1769.8965
 Red. masses --     6.3218                 7.4680                11.9971
 Frc consts  --    10.2147                12.2591                22.1423
 IR Inten    --    10.3422                14.0836               233.3572

                   127                    128                    129
                     A                      A                      A
 Frequencies --  3059.8913              3073.4895              3121.3019
 Red. masses --     1.0621                 1.0651                 1.1022
 Frc consts  --     5.8588                 5.9281                 6.3270
 IR Inten    --    19.9094                25.6021                 3.7878

                   130                    131                    132
                     A                      A                      A
 Frequencies --  3131.5863              3162.6625              3179.1940
 Red. masses --     1.0986                 1.0908                 1.0858
 Frc consts  --     6.3480                 6.4282                 6.4660
 IR Inten    --     6.6746                22.4174                 1.9172

                   133                    134                    135
                     A                      A                      A
 Frequencies --  3184.9383              3186.1256              3190.6589
 Red. masses --     1.0909                 1.0882                 1.0914
 Frc consts  --     6.5197                 6.5087                 6.5465
 IR Inten    --    10.7002                 6.6208                 0.8343

                   136                    137                    138
                     A                      A                      A
 Frequencies --  3193.1623              3206.9925              3211.8895
 Red. masses --     1.0899                 1.0951                 1.0970
 Frc consts  --     6.5474                 6.6356                 6.6680
 IR Inten    --    11.8575                13.6058                 8.1889

                   139                    140                    141
                     A                      A                      A
 Frequencies --  3214.7828              3219.6342              3243.7912
 Red. masses --     1.0927                 1.0950                 1.0964
 Frc consts  --     6.6538                 6.6879                 6.7969
 IR Inten    --     1.6018                 1.9146                 1.2929

                   142                    143                    144
                     A                      A                      A
 Frequencies --  3263.0468              3276.3551              3642.7802
 Red. masses --     1.0985                 1.0935                 1.0826
 Frc consts  --     6.8913                 6.9158                 8.4643
 IR Inten    --     0.0384                 3.2252               147.6863

 - Thermochemistry -
 -------------------
 Temperature   298.150 Kelvin.  Pressure   1.00000 Atm.
 Atom     1 has atomic number 17 and mass  34.96885

 Molecular mass:   443.12614 amu.
 Principal axes and moments of inertia in atomic units:
                           1         2         3
     Eigenvalues --  ******************************
           X            0.99996   0.00789  -0.00349
           Y           -0.00790   0.99995  -0.00534
           Z            0.00345   0.00537   0.99998
 This molecule is an asymmetric top.
 Rotational symmetry number  1.
 Warning -- assumption of classical behavior for rotation
           may cause significant error
 Rotational temperatures (Kelvin)      0.00698     0.00328     0.00246
 Rotational constants (GHZ):           0.14536     0.06840     0.05121
 Zero-point vibrational energy    1000097.9 (Joules/Mol)
                                  239.02913 (Kcal/Mol)
 Warning -- explicit consideration of  41 degrees of freedom as
           vibrations may cause significant error
 Vibrational temperatures:     15.92    21.89    24.33    30.66    38.23
          (Kelvin)             47.41    68.08    74.72    95.03   112.37
                              138.63   197.94   219.76   235.51   256.39
                              277.85   323.49   328.87   342.10   370.42
                              403.12   451.20   496.80   519.76   572.92
                              579.15   610.31   630.47   632.92   636.95
                              639.77   660.80   683.47   750.07   769.43
                              776.41   796.13   833.00   841.95   864.91
                              879.86   939.07   958.78   959.79   969.58
                              988.42  1002.38  1005.43  1045.10  1094.71
                             1117.92  1122.32  1132.46  1142.02  1151.07
                             1151.56  1197.32  1241.45  1242.75  1246.06
                             1257.94  1267.78  1302.29  1321.08  1326.50
                             1361.94  1364.63  1380.20  1381.03  1382.31
                             1431.26  1434.66  1435.55  1437.00  1457.48
                             1474.37  1485.32  1513.71  1577.10  1583.45
                             1601.13  1610.56  1623.38  1634.56  1649.83
                             1667.35  1685.85  1695.06  1701.32  1749.74
                             1759.43  1782.43  1812.22  1826.58  1863.81
                             1866.50  1883.94  1897.57  1907.35  1927.60
                             1932.13  1946.74  1973.50  1983.61  1986.40
                             2027.60  2034.45  2055.42  2062.73  2070.78
                             2078.64  2082.44  2093.81  2143.59  2146.25
                             2167.69  2182.38  2201.15  2306.42  2318.19
                             2334.98  2353.57  2368.86  2382.65  2401.56
                             2546.48  4402.50  4422.06  4490.85  4505.65
                             4550.36  4574.15  4582.41  4584.12  4590.64
                             4594.24  4614.14  4621.19  4625.35  4632.33
                             4667.09  4694.79  4713.94  5241.14

 Zero-point correction=                           0.380917 (Hartree/Particle)
 Thermal correction to Energy=                    0.406812
 Thermal correction to Enthalpy=                  0.407757
 Thermal correction to Gibbs Free Energy=         0.318341
 Sum of electronic and zero-point Energies=          -1805.658684
 Sum of electronic and thermal Energies=             -1805.632789
 Sum of electronic and thermal Enthalpies=           -1805.631845
 Sum of electronic and thermal Free Energies=        -1805.721261

                     E (Thermal)             CV                S
                      KCal/Mol        Cal/Mol-Kelvin    Cal/Mol-Kelvin
 Total                  255.279            100.110            188.191
 Electronic               0.000              0.000              0.000
 Translational            0.889              2.981             44.156
 Rotational               0.889              2.981             37.688
 Vibrational            253.501             94.148            106.347
 Vibration     1          0.593              1.987              7.809
 Vibration     2          0.593              1.986              7.178
 Vibration     3          0.593              1.986              6.967
 Vibration     4          0.593              1.985              6.508
 Vibration     5          0.593              1.984              6.070
 Vibration     6          0.594              1.983              5.643
 Vibration     7          0.595              1.979              4.926
 Vibration     8          0.596              1.977              4.742
 Vibration     9          0.597              1.970              4.268
 Vibration    10          0.599              1.964              3.938
 Vibration    11          0.603              1.952              3.527
 Vibration    12          0.614              1.916              2.837
 Vibration    13          0.619              1.900              2.638
 Vibration    14          0.623              1.887              2.507
 Vibration    15          0.629              1.869              2.347
 Vibration    16          0.635              1.849              2.198
 Vibration    17          0.649              1.803              1.920
 Vibration    18          0.651              1.797              1.890
 Vibration    19          0.656              1.783              1.820
 Vibration    20          0.667              1.750              1.679
 Vibration    21          0.680              1.710              1.533
 Vibration    22          0.701              1.648              1.343
 Vibration    23          0.724              1.585              1.188
 Vibration    24          0.735              1.552              1.117
 Vibration    25          0.764              1.474              0.969
 Vibration    26          0.768              1.465              0.953
 Vibration    27          0.786              1.418              0.878
 Vibration    28          0.798              1.387              0.832
 Vibration    29          0.800              1.383              0.827
 Vibration    30          0.802              1.377              0.818
 Vibration    31          0.804              1.373              0.812
 Vibration    32          0.817              1.340              0.768
 Vibration    33          0.832              1.305              0.724
 Vibration    34          0.876              1.203              0.607
 Vibration    35          0.890              1.173              0.577
 Vibration    36          0.895              1.162              0.566
 Vibration    37          0.909              1.132              0.537
 Vibration    38          0.936              1.077              0.487
 Vibration    39          0.942              1.063              0.476
 Vibration    40          0.959              1.029              0.448
 Vibration    41          0.971              1.007              0.430

 Optimization completed.
    -- Stationary point found.
 Normal termination of Gaussian 09 at Fri Sep  9 20:50:50 2022.
