 Gaussian 09, Revision C.01,
 Gaussian 09:  EM64L-G09RevC.01 23-Sep-2011

 -------------------------
 #p opt freq b3lyp/cc-pvdz
 -------------------------

 (Enter /opt/gaussian/l101.exe)
 ---------
 Mol41.log
 ---------
 Charge =  0 Multiplicity = 1

 SCF Done:  E(RB3LYP) =  -1790.00880528     A.U. after   15 cycles
 SCF Done:  E(RB3LYP) =  -1790.01911766     A.U. after   13 cycles
 SCF Done:  E(RB3LYP) =  -1790.01946049     A.U. after   11 cycles
 SCF Done:  E(RB3LYP) =  -1790.01954239     A.U. after   11 cycles
 SCF Done:  E(RB3LYP) =  -1790.01955328     A.U. after   11 cycles
 SCF Done:  E(RB3LYP) =  -1790.01956880     A.U. after   11 cycles
 SCF Done:  E(RB3LYP) =  -1790.01957947     A.U. after   10 cycles
 SCF Done:  E(RB3LYP) =  -1790.01958530     A.U. after   10 cycles
 SCF Done:  E(RB3LYP) =  -1790.01958607     A.U. after    8 cycles
 SCF Done:  E(RB3LYP) =  -1790.01958642     A.U. after    8 cycles
 SCF Done:  E(RB3LYP) =  -1790.01958646     A.U. after    7 cycles
 SCF Done:  E(RB3LYP) =  -1790.01958640     A.U. after    8 cycles
 SCF Done:  E(RB3LYP) =  -1790.01958640     A.U. after    7 cycles
 SCF Done:  E(RB3LYP) =  -1790.01958644     A.U. after    7 cycles
 SCF Done:  E(RB3LYP) =  -1790.01958651     A.U. after    7 cycles
 SCF Done:  E(RB3LYP) =  -1790.01958659     A.U. after    6 cycles
 SCF Done:  E(RB3LYP) =  -1790.01958668     A.U. after    6 cycles
 SCF Done:  E(RB3LYP) =  -1790.01958678     A.U. after    6 cycles
 SCF Done:  E(RB3LYP) =  -1790.01958686     A.U. after    6 cycles
 Optimization completed.
    -- Stationary point found.
 Normal termination of Gaussian 09 at Sat Sep 10 01:03:51 2022.

 -------------------------------------------------------------------
 #P Geom=AllCheck Guess=TCheck SCRF=Check GenChk RB3LYP/CC-pVDZ Freq
 -------------------------------------------------------------------

 Structure from the checkpoint file:  /home/scr/lqcapf-6/Gau-481195.chk
 ---------
 Mol41.log
 ---------
 Charge =  0 Multiplicity = 1

                         Standard orientation:
 ---------------------------------------------------------------------
 Center     Atomic      Atomic             Coordinates (Angstroms)
 Number     Number       Type             X           Y           Z
 ---------------------------------------------------------------------
      1          6           0        4.271044   -1.041590    0.423025
      2          6           0        5.321523   -1.898028    0.028613
      3          6           0        4.480985    0.049131    1.283307
      4          6           0        6.632605   -1.687945    0.491978
      5          6           0        5.780115    0.237179    1.736878
      6          6           0        6.844088   -0.617284    1.348848
      7          7           0        3.176133   -1.570819   -0.203867
      8          7           0        4.807414   -2.870898   -0.806652
      9          7           0        3.541184   -2.669118   -0.934899
     10          6           0        1.785473   -1.188773   -0.165377
     11          6           0        1.523963    0.148731   -0.879609
     12          7           0        0.207889    0.437874   -1.149070
     13          8           0        2.441938    0.904897   -1.168195
     14          6           0       -0.098150    1.703161   -1.851641
     15          6           0       -1.997921    4.325158    0.164881
     16          6           0       -0.971771    5.001696    0.824276
     17          6           0       -1.729452    3.263698   -0.702526
     18          6           0        0.348795    4.598129    0.600523
     19          6           0       -0.404761    2.861658   -0.920472
     20          6           0        0.635689    3.539477   -0.262909
     21         17           0       -3.669087    4.818744    0.427498
     22          6           0       -2.531104   -1.067405    0.908332
     23          6           0       -3.076908   -2.012650    0.020877
     24          6           0       -1.452849   -0.267675    0.531130
     25          6           0       -2.507277   -2.130882   -1.260917
     26          6           0       -0.887985   -0.399514   -0.744927
     27          6           0       -1.428896   -1.333763   -1.639721
     28          6           0       -4.212226   -2.867307    0.394464
     29          6           0       -4.909899   -2.922535    1.589901
     30          7           0       -4.740833   -3.785995   -0.496713
     31          7           0       -5.871101   -3.890473    1.408912
     32          6           0       -5.726588   -4.377884    0.139071
     33          1           0        3.674632    0.727476    1.561704
     34          1           0        7.441090   -2.351368    0.181137
     35          1           0        5.993012    1.074390    2.405550
     36          1           0        7.847461   -0.419279    1.731463
     37          1           0        1.224959   -2.008056   -0.632162
     38          1           0        1.443603   -1.110073    0.880093
     39          1           0        0.779657    1.938757   -2.467269
     40          1           0       -0.954792    1.509831   -2.512237
     41          1           0       -1.204031    5.830096    1.494088
     42          1           0       -2.553942    2.757090   -1.206687
     43          1           0        1.161789    5.125511    1.104772
     44          1           0        1.666171    3.225138   -0.437105
     45          1           0       -2.953394   -0.945801    1.907978
     46          1           0       -1.044177    0.469797    1.224214
     47          1           0       -2.928305   -2.863302   -1.949968
     48          1           0       -0.991075   -1.435724   -2.635311
     49          1           0       -4.815348   -2.380064    2.524916
     50          1           0       -6.556830   -4.184627    2.093002
     51          1           0       -6.367263   -5.160328   -0.262095
 ---------------------------------------------------------------------

 SCF Done:  E(RB3LYP) =  -1790.01958686     A.U. after    1 cycles

 The electronic state is 1-A.
 Alpha  occ. eigenvalues -- -101.54552 -19.12138 -14.40826 -14.40596 -14.38405
 Alpha  occ. eigenvalues --  -14.37505 -14.34216 -14.32530 -10.30128 -10.25780
 Alpha  occ. eigenvalues --  -10.25471 -10.25007 -10.24035 -10.23683 -10.23493
 Alpha  occ. eigenvalues --  -10.22619 -10.22222 -10.21528 -10.21211 -10.20879
 Alpha  occ. eigenvalues --  -10.20763 -10.20732 -10.20729 -10.20683 -10.20614
 Alpha  occ. eigenvalues --  -10.20574 -10.20009 -10.19873 -10.19815 -10.19564
 Alpha  occ. eigenvalues --  -10.19406 -10.19021  -9.46365  -7.22620  -7.21656
 Alpha  occ. eigenvalues --   -7.21620  -1.08826  -1.05181  -1.03326  -0.95708
 Alpha  occ. eigenvalues --   -0.91833  -0.89496  -0.89397  -0.86552  -0.85913
 Alpha  occ. eigenvalues --   -0.84241  -0.79255  -0.78305  -0.77099  -0.76370
 Alpha  occ. eigenvalues --   -0.76235  -0.74529  -0.74203  -0.73632  -0.69948
 Alpha  occ. eigenvalues --   -0.65726  -0.64367  -0.63984  -0.62092  -0.61774
 Alpha  occ. eigenvalues --   -0.61700  -0.60728  -0.59259  -0.58399  -0.57376
 Alpha  occ. eigenvalues --   -0.56447  -0.53965  -0.52306  -0.52083  -0.51712
 Alpha  occ. eigenvalues --   -0.49769  -0.48810  -0.48239  -0.47967  -0.47012
 Alpha  occ. eigenvalues --   -0.46362  -0.46154  -0.45517  -0.45207  -0.45084
 Alpha  occ. eigenvalues --   -0.44946  -0.44257  -0.43897  -0.43531  -0.43286
 Alpha  occ. eigenvalues --   -0.42906  -0.42763  -0.41275  -0.40360  -0.39745
 Alpha  occ. eigenvalues --   -0.38816  -0.38412  -0.37674  -0.37233  -0.36585
 Alpha  occ. eigenvalues --   -0.36195  -0.35972  -0.35885  -0.35099  -0.33423
 Alpha  occ. eigenvalues --   -0.32468  -0.31625  -0.31465  -0.30604  -0.28783
 Alpha  occ. eigenvalues --   -0.28423  -0.27531  -0.27032  -0.26492  -0.26063
 Alpha  occ. eigenvalues --   -0.25966  -0.24984  -0.24446  -0.23067  -0.22485
 Alpha virt. eigenvalues --   -0.04465  -0.03699  -0.02829  -0.02473  -0.01988
 Alpha virt. eigenvalues --    0.00522   0.01216   0.01477   0.02751   0.03150
 Alpha virt. eigenvalues --    0.04078   0.04686   0.05870   0.06504   0.07147

 Mulliken atomic charges:
              1
     1  C    0.211346
     2  C    0.010195
     3  C    0.034515
     4  C    0.043600
     5  C    0.037746
     6  C    0.036951
     7  N   -0.230071
     8  N   -0.183833
     9  N   -0.060904
    10  C    0.152829
    11  C    0.136495
    12  N   -0.247121
    13  O   -0.267577
    14  C    0.193458
    15  C   -0.140944
    16  C    0.114294
    17  C    0.122639
    18  C    0.045130
    19  C   -0.085238
    20  C    0.032538
    21  Cl  -0.094090
    22  C   -0.004675
    23  C    0.016166
    24  C    0.092224
    25  C    0.053929
    26  C   -0.028224
    27  C    0.092638
    28  C    0.097830
    29  C    0.003399
    30  N   -0.217947
    31  N   -0.043501
    32  C    0.140363
    33  H   -0.032467
    34  H   -0.023993
    35  H   -0.027776
    36  H   -0.028992
    37  H    0.060438
    38  H    0.050440
    39  H    0.043235
    40  H    0.009198
    41  H   -0.021543
    42  H   -0.029271
    43  H   -0.018255
    44  H   -0.015454
    45  H   -0.044052
    46  H   -0.033371
    47  H   -0.025301
    48  H   -0.032478
    49  H    0.000491
    50  H    0.096310
    51  H    0.008682
 Sum of Mulliken atomic charges =   0.00000

 Dipole moment (field-independent basis, Debye):
    X=             -6.6008    Y=             -0.2848    Z=              5.0346  Tot=              8.3066
 Quadrupole moment (field-independent basis, Debye-Ang):
   XX=           -169.6132   YY=           -192.2110   ZZ=           -180.6477
   XY=             40.2541   XZ=             -4.7971   YZ=             -9.8742

  Exact polarizability: 412.897  44.826 298.642  -8.999  51.973 225.311
 Approx polarizability: 602.831  68.733 450.326 -19.299 118.601 422.554

                     1                      2                      3
                     A                      A                      A
 Frequencies --     8.6985                13.1536                16.4398
 Red. masses --     7.0745                 6.3846                10.1223
 Frc consts  --     0.0003                 0.0007                 0.0016
 IR Inten    --     0.2141                 1.3077                 0.5661

                     4                      5                      6
                     A                      A                      A
 Frequencies --    22.7480                26.6321                27.0415
 Red. masses --     5.6363                 4.8267                 6.1543
 Frc consts  --     0.0017                 0.0020                 0.0027
 IR Inten    --     1.8159                 1.8086                 0.9651

                     7                      8                      9
                     A                      A                      A
 Frequencies --    49.5117                55.1620                65.2404
 Red. masses --     5.6530                 4.0153                 5.8465
 Frc consts  --     0.0082                 0.0072                 0.0147
 IR Inten    --     1.1662                 1.7086                 0.9233

                    10                     11                     12
                     A                      A                      A
 Frequencies --    84.7654                95.3081               110.6453
 Red. masses --     7.7942                 6.4182                 6.2734
 Frc consts  --     0.0330                 0.0343                 0.0452
 IR Inten    --     1.1788                 3.2854                 4.1133

                    13                     14                     15
                     A                      A                      A
 Frequencies --   140.0162               164.8672               180.5733
 Red. masses --     7.5834                 5.6117                 4.9528
 Frc consts  --     0.0876                 0.0899                 0.0951
 IR Inten    --     1.9779                 0.4863                 1.7458

                    16                     17                     18
                     A                      A                      A
 Frequencies --   197.0286               210.9795               228.0495
 Red. masses --     4.9269                 5.5423                 4.8821
 Frc consts  --     0.1127                 0.1454                 0.1496
 IR Inten    --     0.2868                 4.7313                 0.1265

                    19                     20                     21
                     A                      A                      A
 Frequencies --   232.8559               246.9657               276.7229
 Red. masses --     5.5584                 3.2336                 5.0777
 Frc consts  --     0.1776                 0.1162                 0.2291
 IR Inten    --     1.2707                 1.9451                 0.5230

                    22                     23                     24
                     A                      A                      A
 Frequencies --   313.6804               343.6528               347.3251
 Red. masses --     5.0451                 5.3482                 7.7304
 Frc consts  --     0.2925                 0.3721                 0.5494
 IR Inten    --     3.2352                 1.4365                 5.2414

                    25                     26                     27
                     A                      A                      A
 Frequencies --   399.5393               412.8933               423.3376
 Red. masses --     5.6455                 7.6962                 2.7889
 Frc consts  --     0.5310                 0.7730                 0.2945
 IR Inten    --     6.7666                13.0635                 0.4750

                    28                     29                     30
                     A                      A                      A
 Frequencies --   424.4826               439.3951               442.6101
 Red. masses --     2.7309                 2.9019                 3.5746
 Frc consts  --     0.2899                 0.3301                 0.4126
 IR Inten    --     0.8731                 2.3982                 0.6549

                    31                     32                     33
                     A                      A                      A
 Frequencies --   462.6798               477.6488               479.6022
 Red. masses --     4.6440                 4.6401                 4.9178
 Frc consts  --     0.5857                 0.6237                 0.6665
 IR Inten    --     3.1023                 2.1510                 3.6724

                    34                     35                     36
                     A                      A                      A
 Frequencies --   496.0237               522.7048               531.7432
 Red. masses --     5.6067                 4.5331                 1.5645
 Frc consts  --     0.8128                 0.7297                 0.2606
 IR Inten    --    12.1800                 1.7834                93.3147

                    37                     38                     39
                     A                      A                      A
 Frequencies --   546.0127               567.0983               583.4497
 Red. masses --     5.6065                 3.8590                 3.1739
 Frc consts  --     0.9848                 0.7312                 0.6366
 IR Inten    --     1.8593                 2.7429                24.0043

                    40                     41                     42
                     A                      A                      A
 Frequencies --   585.2060               620.6857               645.4259
 Red. masses --     3.7149                 5.6399                 6.1007
 Frc consts  --     0.7496                 1.2802                 1.4973
 IR Inten    --     7.2542                 8.7878                 0.9382

                    43                     44                     45
                     A                      A                      A
 Frequencies --   656.6484               659.5066               671.3871
 Red. masses --     1.8220                 5.2262                 7.3935
 Frc consts  --     0.4629                 1.3393                 1.9636
 IR Inten    --     3.8291                 6.1104                 1.5184

                    46                     47                     48
                     A                      A                      A
 Frequencies --   693.8313               703.1173               707.0423
 Red. masses --     5.0474                 5.9830                 1.9855
 Frc consts  --     1.4316                 1.7427                 0.5848
 IR Inten    --    18.0715                 2.8937                 0.0382

                    49                     50                     51
                     A                      A                      A
 Frequencies --   728.7229               745.6729               759.4150
 Red. masses --     2.6343                 2.3445                 1.3919
 Frc consts  --     0.8242                 0.7681                 0.4730
 IR Inten    --    15.2614                30.2209                50.4958

                    52                     53                     54
                     A                      A                      A
 Frequencies --   775.2868               786.2013               786.5820
 Red. masses --     3.7577                 3.4727                 3.1623
 Frc consts  --     1.3307                 1.2647                 1.1527
 IR Inten    --    13.0736                 0.5171                 4.2117

                    55                     56                     57
                     A                      A                      A
 Frequencies --   791.0352               817.4950               823.6409
 Red. masses --     4.9506                 1.7177                 2.9914
 Frc consts  --     1.8252                 0.6764                 1.1957
 IR Inten    --     3.5828                16.8141                21.9103

                    58                     59                     60
                     A                      A                      A
 Frequencies --   826.0132               852.8828               863.8432
 Red. masses --     1.6971                 1.3358                 1.5720
 Frc consts  --     0.6822                 0.5725                 0.6912
 IR Inten    --    41.4819                 1.7828                 1.0511

                    61                     62                     63
                     A                      A                      A
 Frequencies --   869.8398               888.4159               894.5101
 Red. masses --     3.4982                 1.8200                 2.3090
 Frc consts  --     1.5595                 0.8463                 1.0886
 IR Inten    --    13.2002                16.7547                 4.1111

                    64                     65                     66
                     A                      A                      A
 Frequencies --   917.5669               920.8299               939.0092
 Red. masses --     1.6949                 4.6721                 5.3245
 Frc consts  --     0.8408                 2.3341                 2.7661
 IR Inten    --     4.6753                 5.6300                21.5207

                    67                     68                     69
                     A                      A                      A
 Frequencies --   943.9732               946.3365               957.1380
 Red. masses --     1.4250                 4.5480                 1.5809
 Frc consts  --     0.7481                 2.3997                 0.8533
 IR Inten    --     2.8317                 7.4436                15.2076

                    70                     71                     72
                     A                      A                      A
 Frequencies --   958.4079               977.3096               996.0570
 Red. masses --     2.7169                 1.3748                 1.2884
 Frc consts  --     1.4703                 0.7737                 0.7531
 IR Inten    --    48.5929                 0.0896                 0.1022

                    73                     74                     75
                     A                      A                      A
 Frequencies --  1010.0732              1011.4048              1012.5552
 Red. masses --     2.2032                 1.3731                 2.1326
 Frc consts  --     1.3244                 0.8276                 1.2882
 IR Inten    --     4.2908                 1.7517                 2.1766

                    76                     77                     78
                     A                      A                      A
 Frequencies --  1022.4086              1024.0100              1034.5859
 Red. masses --     2.9186                 2.2211                 2.7107
 Frc consts  --     1.7975                 1.3722                 1.7095
 IR Inten    --    33.1225                 3.4373                 5.0972

                    79                     80                     81
                     A                      A                      A
 Frequencies --  1046.9232              1073.9930              1095.7365
 Red. masses --     3.8786                 1.7658                 3.0833
 Frc consts  --     2.5047                 1.2000                 2.1811
 IR Inten    --    14.3183                10.4349                76.5064

                    82                     83                     84
                     A                      A                      A
 Frequencies --  1099.9820              1112.4240              1113.3674
 Red. masses --     1.9698                 1.5020                 1.5047
 Frc consts  --     1.4042                 1.0951                 1.0990
 IR Inten    --    27.7182                15.6181                 3.8005

                    85                     86                     87
                     A                      A                      A
 Frequencies --  1121.6433              1127.2431              1135.7706
 Red. masses --     1.4014                 2.2477                 3.1044
 Frc consts  --     1.0388                 1.6827                 2.3594
 IR Inten    --    28.0226                 6.0728                18.5484

                    88                     89                     90
                     A                      A                      A
 Frequencies --  1144.6515              1176.7483              1181.2765
 Red. masses --     1.4120                 1.5103                 1.1167
 Frc consts  --     1.0900                 1.2322                 0.9181
 IR Inten    --     1.8255                 5.9009                 1.0455

                    91                     92                     93
                     A                      A                      A
 Frequencies --  1185.5284              1222.7854              1227.0917
 Red. masses --     1.1239                 2.3420                 1.4341
 Frc consts  --     0.9307                 2.0631                 1.2723
 IR Inten    --     0.1016                13.2552                 5.1929

                    94                     95                     96
                     A                      A                      A
 Frequencies --  1230.6378              1267.8937              1284.7512
 Red. masses --     1.6381                 2.3727                 3.4762
 Frc consts  --     1.4617                 2.2473                 3.3806
 IR Inten    --    86.1550                54.6826               224.1021

                    97                     98                     99
                     A                      A                      A
 Frequencies --  1291.3944              1302.4166              1305.7268
 Red. masses --     1.7060                 1.6866                 1.4437
 Frc consts  --     1.6763                 1.6857                 1.4503
 IR Inten    --     8.4729                 8.0467                12.3579

                   100                    101                    102
                     A                      A                      A
 Frequencies --  1314.6786              1322.3068              1343.6438
 Red. masses --     1.6376                 3.1579                 3.3076
 Frc consts  --     1.6676                 3.2532                 3.5183
 IR Inten    --    33.6801                 3.6096                 6.6212

                   103                    104                    105
                     A                      A                      A
 Frequencies --  1347.0383              1356.5505              1361.9772
 Red. masses --     3.3921                 3.3907                 3.6580
 Frc consts  --     3.6264                 3.6763                 3.9979
 IR Inten    --    11.9941                 2.4436                 1.1233

                   106                    107                    108
                     A                      A                      A
 Frequencies --  1375.3281              1380.9275              1414.0785
 Red. masses --     2.2410                 1.8115                 1.4402
 Frc consts  --     2.4974                 2.0353                 1.6967
 IR Inten    --    33.8193                 4.6026                53.4734

                   109                    110                    111
                     A                      A                      A
 Frequencies --  1427.9491              1433.8275              1438.5982
 Red. masses --     3.3205                 2.6065                 3.1273
 Frc consts  --     3.9892                 3.1572                 3.8132
 IR Inten    --    31.9412                39.6634                47.8261

                   112                    113                    114
                     A                      A                      A
 Frequencies --  1442.3054              1446.7001              1457.7194
 Red. masses --     3.4538                 1.2766                 2.9495
 Frc consts  --     4.2332                 1.5742                 3.6927
 IR Inten    --     5.3778                49.6935                22.3657

                   115                    116                    117
                     A                      A                      A
 Frequencies --  1461.7935              1489.0171              1504.8538
 Red. masses --     2.3909                 3.5439                 2.4984
 Frc consts  --     3.0102                 4.6294                 3.3335
 IR Inten    --     6.9567                25.9423                27.5373

                   118                    119                    120
                     A                      A                      A
 Frequencies --  1523.1062              1529.3241              1539.0372
 Red. masses --     3.0718                 3.7818                 3.6369
 Frc consts  --     4.1986                 5.2113                 5.0756
 IR Inten    --    24.2156                21.6246                70.5135

                   121                    122                    123
                     A                      A                      A
 Frequencies --  1593.7857              1615.8597              1622.0059
 Red. masses --     5.3172                 7.2211                 6.3514
 Frc consts  --     7.9578                11.1086                 9.8451
 IR Inten    --    28.5441                 1.0880                30.0625

                   124                    125                    126
                     A                      A                      A
 Frequencies --  1635.2854              1646.3389              1659.9351
 Red. masses --     7.3883                 6.3929                 6.2626
 Frc consts  --    11.6408                10.2091                10.1669
 IR Inten    --     3.2068                17.1969                 5.7659

                   127                    128                    129
                     A                      A                      A
 Frequencies --  1668.5540              1747.5682              3048.9336
 Red. masses --     7.4780                11.0881                 1.0688
 Frc consts  --    12.2663                19.9515                 5.8536
 IR Inten    --    15.8153               346.1001                32.7750

                   130                    131                    132
                     A                      A                      A
 Frequencies --  3070.7662              3132.7427              3139.8963
 Red. masses --     1.0608                 1.1055                 1.0950
 Frc consts  --     5.8933                 6.3922                 6.3603
 IR Inten    --    18.3931                 3.8871                 1.8478

                   133                    134                    135
                     A                      A                      A
 Frequencies --  3178.0814              3181.5824              3183.1228
 Red. masses --     1.0859                 1.0877                 1.0877
 Frc consts  --     6.4623                 6.4869                 6.4932
 IR Inten    --     2.7927                14.9271                 7.4921

                   136                    137                    138
                     A                      A                      A
 Frequencies --  3185.6766              3192.7652              3199.7000
 Red. masses --     1.0904                 1.0903                 1.0918
 Frc consts  --     6.5199                 6.5486                 6.5858
 IR Inten    --     3.9149                14.0186                 2.3904

                   139                    140                    141
                     A                      A                      A
 Frequencies --  3201.2526              3205.7374              3209.5149
 Red. masses --     1.0953                 1.0935                 1.0954
 Frc consts  --     6.6131                 6.6210                 6.6480
 IR Inten    --     5.6943                 1.0192                17.4530

                   142                    143                    144
                     A                      A                      A
 Frequencies --  3214.3749              3214.6589              3218.7450
 Red. masses --     1.0957                 1.0958                 1.0932
 Frc consts  --     6.6700                 6.6722                 6.6728
 IR Inten    --     4.9093                 4.7180                 0.4820

                   145                    146                    147
                     A                      A                      A
 Frequencies --  3250.8697              3277.8096              3635.1760
 Red. masses --     1.0976                 1.0989                 1.0826
 Frc consts  --     6.8346                 6.9562                 8.4288
 IR Inten    --     2.0402                 0.8548                99.7018

 - Thermochemistry -
 -------------------
 Temperature   298.150 Kelvin.  Pressure   1.00000 Atm.
 Atom     1 has atomic number  6 and mass  12.00000

 Molecular mass:   442.13089 amu.
 Principal axes and moments of inertia in atomic units:
                           1         2         3
     Eigenvalues --  ******************************
           X            0.99945   0.03310   0.00296
           Y           -0.03310   0.99945  -0.00102
           Z           -0.00299   0.00092   1.00000
 This molecule is an asymmetric top.
 Rotational symmetry number  1.
 Warning -- assumption of classical behavior for rotation
           may cause significant error
 Rotational temperatures (Kelvin)      0.00615     0.00378     0.00255
 Rotational constants (GHZ):           0.12810     0.07866     0.05307
 Zero-point vibrational energy    1030468.3 (Joules/Mol)
                                  246.28783 (Kcal/Mol)
 Warning -- explicit consideration of  41 degrees of freedom as
           vibrations may cause significant error
 Vibrational temperatures:     12.52    18.93    23.65    32.73    38.32
          (Kelvin)             38.91    71.24    79.37    93.87   121.96
                              137.13   159.19   201.45   237.21   259.80
                              283.48   303.55   328.11   335.03   355.33
                              398.14   451.32   494.44   499.72   574.85
                              594.06   609.09   610.73   632.19   636.82
                              665.69   687.23   690.04   713.67   752.05
                              765.06   785.59   815.93   839.45   841.98
                              893.03   928.62   944.77   948.88   965.98
                              998.27  1011.63  1017.27  1048.47  1072.86
                             1092.63  1115.46  1131.17  1131.71  1138.12
                             1176.19  1185.03  1188.45  1227.11  1242.88
                             1251.50  1278.23  1287.00  1320.17  1324.87
                             1351.02  1358.17  1361.57  1377.11  1378.93
                             1406.13  1433.10  1453.27  1455.18  1456.84
                             1471.02  1473.32  1488.54  1506.29  1545.23
                             1576.52  1582.63  1600.53  1601.89  1613.79
                             1621.85  1634.12  1646.90  1693.08  1699.59
                             1705.71  1759.31  1765.51  1770.61  1824.21
                             1848.47  1858.03  1873.88  1878.65  1891.53
                             1902.50  1933.20  1938.09  1951.77  1959.58
                             1978.79  1986.84  2034.54  2054.50  2062.96
                             2069.82  2075.15  2081.48  2097.33  2103.19
                             2142.36  2165.15  2191.41  2200.35  2214.33
                             2293.10  2324.86  2333.70  2352.81  2368.71
                             2388.27  2400.67  2514.36  4386.73  4418.14
                             4507.31  4517.60  4572.54  4577.58  4579.80
                             4583.47  4593.67  4603.65  4605.88  4612.34
                             4617.77  4624.76  4625.17  4631.05  4677.27
                             4716.03  5230.20

 Zero-point correction=                           0.392485 (Hartree/Particle)
 Thermal correction to Energy=                    0.418620
 Thermal correction to Enthalpy=                  0.419564
 Thermal correction to Gibbs Free Energy=         0.329273
 Sum of electronic and zero-point Energies=          -1789.627102
 Sum of electronic and thermal Energies=             -1789.600967
 Sum of electronic and thermal Enthalpies=           -1789.600023
 Sum of electronic and thermal Free Energies=        -1789.690314

                     E (Thermal)             CV                S
                      KCal/Mol        Cal/Mol-Kelvin    Cal/Mol-Kelvin
 Total                  262.688            101.161            190.033
 Electronic               0.000              0.000              0.000
 Translational            0.889              2.981             44.149
 Rotational               0.889              2.981             37.639
 Vibrational            260.910             95.199            108.245
 Vibration     1          0.593              1.987              8.288
 Vibration     2          0.593              1.987              7.466
 Vibration     3          0.593              1.986              7.024
 Vibration     4          0.593              1.985              6.379
 Vibration     5          0.593              1.984              6.066
 Vibration     6          0.593              1.984              6.035
 Vibration     7          0.595              1.978              4.837
 Vibration     8          0.596              1.976              4.623
 Vibration     9          0.597              1.971              4.292
 Vibration    10          0.601              1.960              3.777
 Vibration    11          0.603              1.953              3.548
 Vibration    12          0.606              1.941              3.258
 Vibration    13          0.615              1.913              2.804
 Vibration    14          0.623              1.886              2.493
 Vibration    15          0.630              1.866              2.322
 Vibration    16          0.636              1.844              2.161
 Vibration    17          0.643              1.824              2.035
 Vibration    18          0.651              1.798              1.894
 Vibration    19          0.654              1.791              1.857
 Vibration    20          0.661              1.768              1.752
 Vibration    21          0.678              1.716              1.554
 Vibration    22          0.702              1.648              1.343
 Vibration    23          0.722              1.588              1.195
 Vibration    24          0.725              1.581              1.178
 Vibration    25          0.766              1.471              0.964
 Vibration    26          0.777              1.442              0.916
 Vibration    27          0.785              1.419              0.881
 Vibration    28          0.786              1.417              0.877
 Vibration    29          0.799              1.384              0.829
 Vibration    30          0.802              1.377              0.818
 Vibration    31          0.820              1.333              0.758
 Vibration    32          0.834              1.300              0.716
 Vibration    33          0.836              1.295              0.711
 Vibration    34          0.852              1.259              0.668
 Vibration    35          0.878              1.200              0.604
 Vibration    36          0.887              1.180              0.583
 Vibration    37          0.901              1.148              0.552
 Vibration    38          0.923              1.102              0.510
 Vibration    39          0.940              1.067              0.479
 Vibration    40          0.942              1.063              0.476
 Vibration    41          0.981              0.988              0.415

 Optimization completed.
    -- Stationary point found.
 Normal termination of Gaussian 09 at Sat Sep 10 04:15:15 2022.
